<PP_INFO>
Generated using APE Version-2.x
Author: Unknown Generation date: 2018/02/12
Pseudopotential for: H
Exchange-correlation: Perdew-Wang LDA
    0        The Pseudo was generated with a Non-Relativistic Calculation
State   n   l    occ     rc         ev
1s      1   0    1.00    1.25     -0.233457
2p      2   1    0.00    1.25      0.000000
3d      3   2    0.00    1.25      0.000000
</PP_INFO>
<PP_HEADER>
   0                   Version Number
  H                    Element
   NC                  Norm - Conserving pseudopotential
    F                  Nonlinear Core Correction
 SLA  PW   NOGX NOGC        Exchange-Correlation functional
    1.00000000000      Z valence
    0.00000000000      Total energy
  0.0000000  0.0000000 Suggested cutoff for wfc and rho
    2                  Max angular momentum component
  200                  Number of points in mesh
    3    2             Number of Wavefunctions, Number of Projectors
 Wavefunctions         nl  l   occ
                       1s  0  1.00
                       2p  1  0.00
                       3d  2  0.00
</PP_HEADER>
<PP_MESH>
  <PP_R>
  9.99999974738E-06  1.07782520927E-05  1.16170721108E-05  1.25211734952E-05
  1.34956367836E-05  1.45459379080E-05  1.56779789657E-05  1.68981213865E-05
  1.82132216797E-05  1.96306699642E-05  2.11584314967E-05  2.28050914318E-05
  2.45799030658E-05  2.64928398349E-05  2.85546513605E-05  3.07769238556E-05
  3.31721452333E-05  3.57537752811E-05  3.85363212980E-05  4.15354196166E-05
  4.47679234712E-05  4.82519977027E-05  5.20072208353E-05  5.60546950962E-05
  6.04171649987E-05  6.51191451531E-05  7.01870580249E-05  7.56493824146E-05
  8.15368134917E-05  8.78824352847E-05  9.47219065945E-05  1.02093661376E-04
  1.10039124718E-04  1.18602945623E-04  1.27833247915E-04  1.37781900665E-04
  1.48504809669E-04  1.60062231603E-04  1.72519112631E-04  1.85945453371E-04
  2.00416702255E-04  2.16014179506E-04  2.32825534112E-04  2.50945236366E-04
  2.70475108733E-04  2.91524898037E-04  3.14212892170E-04  3.38666584813E-04
  3.65023391869E-04  3.93431423668E-04  4.24050317259E-04  4.57052133485E-04
  4.92622323864E-04  5.30960772722E-04  5.72282920428E-04  6.16820974053E-04
  6.64825212233E-04  7.16565391603E-04  7.72332262668E-04  8.32439203663E-04
  8.97223981556E-04  9.67050650109E-04  1.04231159566E-03  1.12342974209E-03
  1.21086092745E-03  1.30509646549E-03  1.40666590657E-03  1.51614001342E-03
  1.63413396852E-03  1.76131083109E-03  1.89838526306E-03  2.04612754511E-03
  2.20536790521E-03  2.37700118399E-03  2.56199186328E-03  2.76137948594E-03
  2.97628449748E-03  3.20791454238E-03  3.45757125029E-03  3.72665755054E-03
  4.01668555575E-03  4.32928505905E-03  4.66621269262E-03  5.02936179896E-03
  5.42077307038E-03  5.84264601657E-03  6.29735132457E-03  6.78744418069E-03
  7.31567862925E-03  7.88502304869E-03  8.49867683222E-03  9.16008836658E-03
  9.87297441002E-03  1.06413409784E-02  1.14695058567E-02  1.23621228624E-02
  1.33242079978E-02  1.43611676363E-02  1.54788289039E-02  1.66834724241E-02
  1.79818676110E-02  1.93813107105E-02  2.08896658001E-02  2.25154089813E-02
  2.42676760100E-02  2.61563136347E-02  2.81919349291E-02  3.03859789322E-02
  3.27507749287E-02  3.52996117330E-02  3.80468123643E-02  4.10078145344E-02
  4.41992573987E-02  4.76390750586E-02  5.13465973414E-02  5.53426584227E-02
  5.96497139027E-02  6.42919669940E-02  6.92955045301E-02  7.46884435581E-02
  8.05010893415E-02  8.67661056576E-02  9.35186983501E-02  1.00796813166E-01
  1.08641348988E-01  1.17096387667E-01  1.26209441729E-01  1.36031721380E-01
  1.46618422267E-01  1.58029035655E-01  1.70327682727E-01  1.83583474917E-01
  1.97870902269E-01  2.13270252034E-01  2.29868059836E-01  2.47757595955E-01
  2.67039389453E-01  2.87821793091E-01  3.10221592207E-01  3.34364660986E-01
  3.60386669803E-01  3.88433847610E-01  4.18663803662E-01  4.51246413194E-01
  4.86364772019E-01  5.24216225424E-01  5.65013477142E-01  6.08985784623E-01
  6.56380247333E-01  7.07463195312E-01  7.62521685799E-01  8.21865116329E-01
  8.85826963374E-01  9.54766656292E-01  1.02907159712E+00  1.10915933753E+00
  1.19547992528E+00  1.28851843319E+00  1.38879768499E+00  1.49688119326E+00
  1.61337632613E+00  1.73893772027E+00  1.87427095960E+00  2.02013654029E+00
  2.17735414429E+00  2.34680724550E+00  2.52944807439E+00  2.72630296898E+00
  2.93847814229E+00  3.16716589865E+00  3.41365133373E+00  3.67931955609E+00
  3.96566347068E+00  4.27429216815E+00  4.60693996698E+00  4.96547615943E+00
  5.35191551585E+00  5.76842960657E+00  6.21735900490E+00  6.70122643983E+00
  7.22275097232E+00  7.78486327488E+00  8.39072210033E+00  9.04373203215E+00
  9.74756261634E+00  1.05061689822E+01  1.13238140679E+01  1.22050925758E+01
  1.31549567919E+01  1.41787444153E+01  1.52822085526E+01  1.64715500474E+01
  1.77534523253E+01  1.91351189511E+01  2.06243141088E+01  2.22294062319E+01
  2.39594150290E+01  2.58240621699E+01  2.78338259156E+01  3.00000000000E+01
  </PP_R>
  <PP_RAB>
  7.49453391715E-07  8.07779779167E-07  8.70645431517E-07  9.38403618128E-07
  1.01143510164E-06  1.09015027762E-06  1.17499148079E-06  1.26643547066E-06
  1.36499611067E-06  1.47122725580E-06  1.58572586492E-06  1.70913535537E-06
  1.84214921861E-06  1.98551491720E-06  2.14003808520E-06  2.30658705529E-06
  2.48609773836E-06  2.67957888280E-06  2.88811774306E-06  3.11288618944E-06
  3.35514729331E-06  3.61626242489E-06  3.89769890333E-06  4.20103824227E-06
  4.52798503700E-06  4.88037654334E-06  5.26019300201E-06  5.66956876640E-06
  6.11080429647E-06  6.58637908602E-06  7.09896559603E-06  7.65144427241E-06
  8.24691973244E-06  8.88873821097E-06  9.58050636438E-06  1.03261115379E-05
  1.11297436104E-05  1.19959185390E-05  1.29295037363E-05  1.39357454224E-05
  1.50202981056E-05  1.61892563579E-05  1.74491890626E-05  1.88071763280E-05
  2.02708492736E-05  2.18484329122E-05  2.35487923707E-05  2.53814827061E-05
  2.73568026003E-05  2.94858522324E-05  3.17805956556E-05  3.42539280285E-05
  3.69197480782E-05  3.97930362037E-05  4.28899386571E-05  4.62278582763E-05
  4.98255522793E-05  5.37032376689E-05  5.78827048410E-05  6.23874400342E-05
  6.72427573092E-05  7.24759407994E-05  7.81163980322E-05  8.41958251832E-05
  9.07483851900E-05  9.78108997289E-05  1.05423056132E-04  1.13627630408E-04
  1.22470727616E-04  1.32002040957E-04  1.42275131012E-04  1.53347726730E-04
  1.65282049829E-04  1.78145164445E-04  1.92009353999E-04  2.06952527383E-04
  2.23058656770E-04  2.40418249485E-04  2.59128856609E-04  2.79295621157E-04
  3.01031868926E-04  3.24459745317E-04  3.49710901730E-04  3.76927235361E-04
  4.06261686595E-04  4.37879098433E-04  4.71957142824E-04  5.08687319080E-04
  5.48276029990E-04  5.90945741688E-04  6.36936233790E-04  6.86505946817E-04
  7.39933434483E-04  7.97518929012E-04  8.59586028272E-04  9.26483514210E-04
  9.98587312812E-04  1.07630260659E-03  1.16006611149E-03  1.25034853097E-03
  1.34765720109E-03  1.45253894148E-03  1.56558312812E-03  1.68742500531E-03
  1.81874925542E-03  1.96029384635E-03  2.11285417854E-03  2.27728755466E-03
  2.45451799717E-03  2.64554144078E-03  2.85143132907E-03  3.07334464660E-03
  3.31252842055E-03  3.57032672828E-03  3.84818825027E-03  4.14767441092E-03
  4.47046815286E-03  4.81838339410E-03  5.19337522126E-03  5.59755087606E-03
  6.03318159679E-03  6.50271538137E-03  7.00879074378E-03  7.55425154096E-03
  8.14216295368E-03  8.77582871113E-03  9.45880965601E-03  1.01949437544E-02
  1.09883676632E-02  1.18435399753E-02  1.27652662748E-02  1.37587261415E-02
  1.48295022574E-02  1.59836117776E-02  1.72275401443E-02  1.85682775302E-02
  2.00133581203E-02  2.15709024491E-02  2.32496630336E-02  2.50590735576E-02
  2.70093018836E-02  2.91113071902E-02  3.13769015570E-02  3.38188163411E-02
  3.64507737208E-02  3.92875638061E-02  4.23451277506E-02  4.56406473322E-02
  4.91926415046E-02  5.30210704635E-02  5.71474478115E-02  6.15949614525E-02
  6.63886038944E-02  7.15553126931E-02  7.71241218259E-02  8.31263248464E-02
  8.95956507366E-02  9.65684534440E-02  1.04083916171E-01  1.12184271563E-01
  1.20915039028E-01  1.30325280536E-01  1.40467876315E-01  1.51399822009E-01
  1.63182548962E-01  1.75882269427E-01  1.89570348641E-01  2.04323705856E-01
  2.20225246586E-01  2.37364328483E-01  2.55837263483E-01  2.75747859018E-01
  2.97208001359E-01  3.20338284352E-01  3.45268687090E-01  3.72139304318E-01
  4.01101133685E-01  4.32316924272E-01  4.65962091145E-01  5.02225701086E-01
  5.41311535046E-01  5.83439233279E-01  6.28845529589E-01  6.77785581648E-01
  7.30534404832E-01  7.87388417656E-01  8.48667107473E-01  9.14714825818E-01
  9.85902723462E-01  1.06263083608E+00  1.14533033220E+00  1.23446593617E+00
  1.33053853960E+00  1.43408801611E+00  1.54569625511E+00  1.66599043172E+00
  1.79564653106E+00  1.93539314700E+00  2.08601557638E+00  2.24836023194E+00
  </PP_RAB>
</PP_MESH>
<PP_LOCAL>
 -6.24597661103E+00 -6.24597661103E+00 -6.24597661103E+00 -6.24597661103E+00
 -6.24597661103E+00 -6.24597661103E+00 -6.24597661103E+00 -6.24597661103E+00
 -6.24597661103E+00 -6.24597661102E+00 -6.24597661102E+00 -6.24597661102E+00
 -6.24597661102E+00 -6.24597661102E+00 -6.24597661101E+00 -6.24597661101E+00
 -6.24597661101E+00 -6.24597661100E+00 -6.24597661100E+00 -6.24597661099E+00
 -6.24597661099E+00 -6.24597661098E+00 -6.24597661097E+00 -6.24597661096E+00
 -6.24597661095E+00 -6.24597661094E+00 -6.24597661092E+00 -6.24597661090E+00
 -6.24597661088E+00 -6.24597661086E+00 -6.24597661083E+00 -6.24597661079E+00
 -6.24597661076E+00 -6.24597661071E+00 -6.24597661066E+00 -6.24597661060E+00
 -6.24597661053E+00 -6.24597661045E+00 -6.24597661035E+00 -6.24597661024E+00
 -6.24597661011E+00 -6.24597660997E+00 -6.24597660979E+00 -6.24597660959E+00
 -6.24597660936E+00 -6.24597660909E+00 -6.24597660877E+00 -6.24597660841E+00
 -6.24597660798E+00 -6.24597660749E+00 -6.24597660692E+00 -6.24597660625E+00
 -6.24597660548E+00 -6.24597660458E+00 -6.24597660353E+00 -6.24597660232E+00
 -6.24597660091E+00 -6.24597659927E+00 -6.24597659737E+00 -6.24597659516E+00
 -6.24597659259E+00 -6.24597658961E+00 -6.24597658614E+00 -6.24597658210E+00
 -6.24597657742E+00 -6.24597657197E+00 -6.24597656563E+00 -6.24597655827E+00
 -6.24597654971E+00 -6.24597653975E+00 -6.24597652817E+00 -6.24597651470E+00
 -6.24597649902E+00 -6.24597648077E+00 -6.24597645953E+00 -6.24597643479E+00
 -6.24597640596E+00 -6.24597637236E+00 -6.24597633316E+00 -6.24597628742E+00
 -6.24597623401E+00 -6.24597617157E+00 -6.24597609853E+00 -6.24597601298E+00
 -6.24597591266E+00 -6.24597579486E+00 -6.24597565631E+00 -6.24597549306E+00
 -6.24597530031E+00 -6.24597507222E+00 -6.24597480159E+00 -6.24597447959E+00
 -6.24597409524E+00 -6.24597363487E+00 -6.24597308135E+00 -6.24597241306E+00
 -6.24597160263E+00 -6.24597061516E+00 -6.24596940596E+00 -6.24596791750E+00
 -6.24596607539E+00 -6.24596378297E+00 -6.24596091420E+00 -6.24595730408E+00
 -6.24595273589E+00 -6.24594692407E+00 -6.24593949134E+00 -6.24592993804E+00
 -6.24591760094E+00 -6.24590159808E+00 -6.24588075465E+00 -6.24585350356E+00
 -6.24581775195E+00 -6.24577070189E+00 -6.24570860992E+00 -6.24562646418E+00
 -6.24551755145E+00 -6.24537287668E+00 -6.24518038542E+00 -6.24492392299E+00
 -6.24458184290E+00 -6.24412514867E+00 -6.24351501665E+00 -6.24269949967E+00
 -6.24160915065E+00 -6.24015122818E+00 -6.23820204908E+00 -6.23559693488E+00
 -6.23211705674E+00 -6.22747231947E+00 -6.22127924535E+00 -6.21303263892E+00
 -6.20206966573E+00 -6.18752491677E+00 -6.16827515196E+00 -6.14287286999E+00
 -6.10946887346E+00 -6.06572592609E+00 -6.00872891047E+00 -5.93490220424E+00
 -5.83995301571E+00 -5.71887082793E+00 -5.56602818039E+00 -5.37544601442E+00
 -5.14130479712E+00 -4.85879383516E+00 -4.52538283086E+00 -4.14255107048E+00
 -3.71789119439E+00 -3.26727988784E+00 -2.81643821157E+00 -2.40065466022E+00
 -2.06070550024E+00 -1.83224049922E+00 -1.72611074178E+00 -1.70235230841E+00
 -1.66304344440E+00 -1.55217058969E+00 -1.44009483733E+00 -1.33611159652E+00
 -1.23963655741E+00 -1.15012757923E+00 -1.06708167298E+00 -9.90032166616E-01
 -9.18546084998E-01 -8.52221716147E-01 -7.90686354058E-01 -7.33594204265E-01
 -6.80624440691E-01 -6.31479402796E-01 -5.85882922893E-01 -5.43578774246E-01
 -5.04329231221E-01 -4.67913733394E-01 -4.34127646123E-01 -4.02781110606E-01
 -3.73697976979E-01 -3.46714814443E-01 -3.21679992867E-01 -2.98452830706E-01
 -2.76902804450E-01 -2.56908815148E-01 -2.38358507897E-01 -2.21147640476E-01
 -2.05179497554E-01 -1.90364347212E-01 -1.76618936695E-01 -1.63866024578E-01
 -1.52033946720E-01 -1.41056213542E-01 -1.30871136401E-01 -1.21421480932E-01
 -1.12654145422E-01 -1.04519862412E-01 -9.69729218362E-02 -8.99709141637E-02
 -8.34744920766E-02 -7.74471493617E-02 -7.18550157663E-02 -6.66666666667E-02
</PP_LOCAL>
<PP_NONLOCAL>
  <PP_BETA>
    1    1             Beta    L
   200
  2.28189552143E-09  2.65089454912E-09  3.07956339129E-09  3.57755108898E-09
  4.15606700302E-09  4.82813312905E-09  5.60887721368E-09  6.51587326969E-09
  7.56953715496E-09  8.79358611940E-09  1.02155726640E-08  1.18675047285E-08
  1.37865661684E-08  1.60159537379E-08  1.86058494188E-08  2.16145499831E-08
  2.51097792124E-08  2.91702123146E-08  3.38872468479E-08  3.93670600178E-08
  4.57329986521E-08  5.31283556541E-08  6.17195954265E-08  7.17001008713E-08
  8.32945263055E-08  9.67638542755E-08  1.12411270094E-07  1.30588986335E-07
  1.51706170892E-07  1.76238157072E-07  2.04737143014E-07  2.37844621294E-07
  2.76305818478E-07  3.20986469662E-07  3.72892305567E-07  4.33191690846E-07
  5.03241923169E-07  5.84619785049E-07  6.79157036132E-07  7.88981644836E-07
  9.16565687447E-07  1.06478099284E-06  1.23696378535E-06  1.43698978086E-06
  1.66936142647E-06  1.93930924741E-06  2.25290958253E-06  2.61722135837E-06
  3.04044498067E-06  3.53210691962E-06  4.10327414397E-06  4.76680323052E-06
  5.53762975642E-06  6.43310448816E-06  7.47338393455E-06  8.68188405481E-06
  1.00858073343E-05  1.17167550918E-05  1.36114388006E-05  1.58125064352E-05
  1.83695024432E-05  2.13399829495E-05  2.47908112970E-05  2.87996630823E-05
  3.34567745638E-05  3.88669737961E-05  4.51520402084E-05  5.24534457356E-05
  6.09355392013E-05  7.07892456246E-05  8.22363637136E-05  9.55345582703E-05
  1.10983159871E-04  1.28929902351E-04  1.49778749735E-04  1.73998988747E-04
  2.02135791548E-04  2.34822486389E-04  2.72794812322E-04  3.16907478732E-04
  3.68153402297E-04  4.27686054225E-04  4.96845420528E-04  5.77188159366E-04
  6.70522633854E-04  7.78949608286E-04  9.04909523023E-04  1.05123741110E-03
  1.22122669122E-03  1.41870327103E-03  1.64811162613E-03  1.91461478864E-03
  2.22421049111E-03  2.58386607340E-03  3.00167518018E-03  3.48703976373E-03
  4.05088147216E-03  4.70588715837E-03  5.46679400486E-03  6.35072063987E-03
  7.37755163990E-03  8.57038399397E-03  9.95604546967E-03  1.15656963987E-02
  1.34355282201E-02  1.56075742164E-02  1.81306502940E-02  2.10614464258E-02
  2.44657925453E-02  2.84201262933E-02  3.30131941096E-02  3.83480217723E-02
  4.45441956229E-02  5.17405013637E-02  6.00979734070E-02  6.98034141392E-02
  8.10734488402E-02  9.41591878696E-02  1.09351572242E-01  1.26987480507E-01
  1.47456671743E-01  1.71209628152E-01  1.98766335892E-01  2.30725996662E-01
  2.67777582944E-01  3.10711018993E-01  3.60428560846E-01  4.17955623018E-01
  4.84449800837E-01  5.61206085998E-01  6.49655158822E-01  7.51350016697E-01
  8.67933877186E-01  1.00107905620E+00  1.15238214423E+00  1.32319513906E+00
  1.51436532944E+00  1.72584929240E+00  1.95616007563E+00  2.20160513309E+00
  2.45528269814E+00  2.70583757666E+00  2.93605147085E+00  3.12148149304E+00
  3.22958862587E+00  3.22012889928E+00  3.04798727178E+00  2.67000276643E+00
  2.05739550762E+00  1.21467675098E+00  2.03658446505E-01 -8.33650977982E-01
 -1.66825392143E+00 -2.02252753294E+00 -1.69873313908E+00 -8.28198650732E-01
 -8.71085276485E-02  0.00000000000E+00  0.00000000000E+00  0.00000000000E+00
  0.00000000000E+00  0.00000000000E+00  0.00000000000E+00  0.00000000000E+00
  0.00000000000E+00  0.00000000000E+00  0.00000000000E+00  0.00000000000E+00
  0.00000000000E+00  0.00000000000E+00  0.00000000000E+00  0.00000000000E+00
  0.00000000000E+00  0.00000000000E+00  0.00000000000E+00  0.00000000000E+00
  0.00000000000E+00  0.00000000000E+00  0.00000000000E+00  0.00000000000E+00
  0.00000000000E+00  0.00000000000E+00  0.00000000000E+00  0.00000000000E+00
  0.00000000000E+00  0.00000000000E+00  0.00000000000E+00  0.00000000000E+00
  0.00000000000E+00  0.00000000000E+00  0.00000000000E+00  0.00000000000E+00
  0.00000000000E+00  0.00000000000E+00  0.00000000000E+00  0.00000000000E+00
  0.00000000000E+00  0.00000000000E+00  0.00000000000E+00  0.00000000000E+00
  </PP_BETA>
  <PP_BETA>
    2    2             Beta    L
   200
  3.54696026962E-14  4.44121060382E-14  5.56091699037E-14  6.96292081873E-14
  8.71839418064E-14  1.09164528892E-13  1.36686804030E-13  1.71147923098E-13
  2.14297289256E-13  2.68325360607E-13  3.35974847815E-13  4.20679946571E-13
  5.26740672992E-13  6.59541151997E-13  8.25822939978E-13  1.03402725687E-12
  1.29472350086E-12  1.62114579915E-12  2.02986483239E-12  2.54162903788E-12
  3.18241789457E-12  3.98476075958E-12  4.98938820637E-12  6.24729969388E-12
  7.82235253106E-12  9.79450356432E-12  1.22638681507E-11  1.53558024689E-11
  1.92272671688E-11  2.40747954083E-11  3.01444697699E-11  3.77444145321E-11
  4.72604374591E-11  5.91756151573E-11  7.40948162409E-11  9.27754072133E-11
  1.16165699835E-10  1.45453091741E-10  1.82124344141E-10  2.28041056584E-10
  2.85534170207E-10  3.57522296907E-10  4.47659881350E-10  5.60522717180E-10
  7.01840235110E-10  8.78786354842E-10  1.10034366583E-09  1.37775942429E-09
  1.72511651503E-09  2.16004836256E-09  2.70463408372E-09  3.38651932381E-09
  4.24031967486E-09  5.30937791986E-09  6.64796430866E-09  8.32403156139E-09
  1.04226644556E-08  1.30503991139E-08  1.63406312575E-08  2.04603879744E-08
  2.56188067649E-08  3.20777522993E-08  4.01651098416E-08  5.02914301695E-08
  6.29707709594E-08  7.88467926352E-08  9.87254334154E-08  1.23615822281E-07
  1.54781506774E-07  1.93804596164E-07  2.42666076132E-07  3.03846372070E-07
  3.80451265959E-07  4.76369558840E-07  5.96470482356E-07  7.46850880655E-07
  9.35144710367E-07  1.17091056979E-06  1.46611692929E-06  1.83574969429E-06
  2.29857294208E-06  2.87808144848E-06  3.60369335570E-06  4.51224352184E-06
  5.64985335417E-06  7.07427203724E-06  8.85780799221E-06  1.10909993599E-05
  1.38872098065E-05  1.73883829087E-05  2.17722471713E-05  2.72613373360E-05
  3.41342898017E-05  4.27399853511E-05  5.35152568254E-05  6.70070602175E-05
  8.39002340262E-05  1.05052255091E-04  1.31536753841E-04  1.64697995891E-04
  2.06219092607E-04  2.58207398733E-04  3.23301425471E-04  4.04804686292E-04
  5.06853255105E-04  6.34625520328E-04  7.94604749321E-04  9.94907741525E-04
  1.24569617783E-03  1.55969143222E-03  1.95281880327E-03  2.44501359925E-03
  3.06122958149E-03  3.83270031591E-03  4.79851646523E-03  6.00759753080E-03
  7.52115568694E-03  9.41577291536E-03  1.17872415175E-02  1.47553532060E-02
  1.84698642903E-02  2.31179147519E-02  2.89332375755E-02  3.62075609127E-02
  4.53046769836E-02  5.66777221951E-02  7.08902710090E-02  8.86418700143E-02
  1.10798590489E-01  1.38428993205E-01  1.72845472446E-01  2.15650107007E-01
  2.68782627927E-01  3.34565510157E-01  4.15736911910E-01  5.15455384028E-01
  6.37249855148E-01  7.84873086565E-01  9.61995425532E-01  1.17164801027E+00
  1.41529289691E+00  1.69136988868E+00  1.99316516920E+00  2.30590311410E+00
  2.60314623561E+00  2.84300028142E+00  2.96538903094E+00  2.89288940117E+00
  2.53924844140E+00  1.83125222611E+00  7.49658081876E-01 -6.09780425672E-01
 -1.96993043059E+00 -2.85271852554E+00 -2.72589333635E+00 -1.48723081583E+00
 -1.73823849389E-01  0.00000000000E+00  0.00000000000E+00  0.00000000000E+00
  0.00000000000E+00  0.00000000000E+00  0.00000000000E+00  0.00000000000E+00
  0.00000000000E+00  0.00000000000E+00  0.00000000000E+00  0.00000000000E+00
  0.00000000000E+00  0.00000000000E+00  0.00000000000E+00  0.00000000000E+00
  0.00000000000E+00  0.00000000000E+00  0.00000000000E+00  0.00000000000E+00
  0.00000000000E+00  0.00000000000E+00  0.00000000000E+00  0.00000000000E+00
  0.00000000000E+00  0.00000000000E+00  0.00000000000E+00  0.00000000000E+00
  0.00000000000E+00  0.00000000000E+00  0.00000000000E+00  0.00000000000E+00
  0.00000000000E+00  0.00000000000E+00  0.00000000000E+00  0.00000000000E+00
  0.00000000000E+00  0.00000000000E+00  0.00000000000E+00  0.00000000000E+00
  0.00000000000E+00  0.00000000000E+00  0.00000000000E+00  0.00000000000E+00
  </PP_BETA>
  <PP_DIJ>
    2                  Number of nonzero Dij
    1    1 -9.60876098005E-01
    2    2 -1.67213959966E-01
  </PP_DIJ>
</PP_NONLOCAL>
<PP_PSWFC>
1s    0  1.00          Wavefunction
  1.40866308938E-05  1.51829262744E-05  1.63645411021E-05  1.76381153832E-05
  1.90108058838E-05  2.04903263471E-05  2.20849908403E-05  2.38037604746E-05
  2.56562937620E-05  2.76530008903E-05  2.98051022228E-05  3.21246913500E-05
  3.46248030491E-05  3.73194865319E-05  4.02238843931E-05  4.33543177039E-05
  4.67283777261E-05  5.03650247659E-05  5.42846947197E-05  5.85094139122E-05
  6.30629228719E-05  6.79708097395E-05  7.32606540585E-05  7.89621817566E-05
  8.51074321887E-05  9.17309381797E-05  9.88699200790E-05  1.06564494918E-04
  1.14857901846E-04  1.23796745105E-04  1.33431255927E-04  1.43815574796E-04
  1.55008055691E-04  1.67071594002E-04  1.80073979964E-04  1.94088279599E-04
  2.09193245307E-04  2.25473758404E-04  2.43021306108E-04  2.61934495643E-04
  2.82319608353E-04  3.04291196938E-04  3.27972729172E-04  3.53497281715E-04
  3.81008287923E-04  4.10660343853E-04  4.42620076994E-04  4.77067082604E-04
  5.14194932918E-04  5.54212264893E-04  5.97343952600E-04  6.43832370857E-04
  6.93938757194E-04  7.47944679807E-04  8.06153619748E-04  8.68892676225E-04
  9.36514404619E-04  1.00939879751E-03  1.08795541984E-03  1.17262571028E-03
  1.26388546153E-03  1.36224749375E-03  1.46826453589E-03  1.58253233120E-03
  1.70569298433E-03  1.83843856884E-03  1.98151501521E-03  2.13572630136E-03
  2.30193896894E-03  2.48108699089E-03  2.67417701740E-03  2.88229402960E-03
  3.10660743278E-03  3.34837762296E-03  3.60896306356E-03  3.88982791175E-03
  4.19255023672E-03  4.51883087574E-03  4.87050297720E-03  5.24954228332E-03
  5.65807820960E-03  6.09840578196E-03  6.57299849718E-03  7.08452217716E-03
  7.63584989244E-03  8.23007803601E-03  8.87054363415E-03  9.56084298696E-03
  1.03048517377E-02  1.11067464769E-02  1.19710279929E-02  1.29025462898E-02
  1.39065274977E-02  1.49886028109E-02  1.61548395931E-02  1.74117747984E-02
  1.87664508610E-02  2.02264542125E-02  2.17999565900E-02  2.34957592996E-02
  2.53233406004E-02  2.72929063696E-02  2.94154442025E-02  3.17027810861E-02
  3.41676447645E-02  3.68237288826E-02  3.96857619525E-02  4.27695801245E-02
  4.60922036680E-02  4.96719169598E-02  5.35283516387E-02  5.76825724066E-02
  6.21571647225E-02  6.69763233415E-02  7.21659402668E-02  7.77536902061E-02
  8.37691110090E-02  9.02436757953E-02  9.72108525165E-02  1.04706145479E-01
  1.12767111845E-01  1.21433344242E-01  1.30746408279E-01  1.40749720882E-01
  1.51488351828E-01  1.63008726564E-01  1.75358203153E-01  1.88584490047E-01
  2.02734863993E-01  2.17855139039E-01  2.33988328156E-01  2.51172928982E-01
  2.69440755329E-01  2.88814227801E-01  3.09303032617E-01  3.30900061493E-01
  3.53576563436E-01  3.77276480683E-01  4.01910018886E-01  4.27346633086E-01
  4.53407816966E-01  4.79860384083E-01  5.06411339591E-01  5.32705948661E-01
  5.58331151605E-01  5.82826903045E-01  6.05708032980E-01  6.26498380157E-01
  6.44776625206E-01  6.60228853192E-01  6.72696187426E-01  6.82197721081E-01
  6.88902506090E-01  6.93026641583E-01  6.94656156335E-01  6.93563010892E-01
  6.89190597462E-01  6.80993918474E-01  6.68762120435E-01  6.52442495069E-01
  6.32061125809E-01  6.07730009670E-01  5.79653228853E-01  5.48130590111E-01
  5.13558062156E-01  4.76424357919E-01  4.37303056169E-01  3.96839774040E-01
  3.55734143040E-01  3.14716726901E-01  2.74521489532E-01  2.35855000308E-01
  1.99364351980E-01  1.65606064732E-01  1.35018998594E-01  1.07903938911E-01
  8.44124451011E-02  6.45464949838E-02  4.81693212686E-02  3.50263796665E-02
  2.47740777665E-02  1.70128470454E-02  1.13207564528E-02  7.28396207370E-03
  4.52118715207E-03  2.70049819852E-03  1.54795821739E-03  8.49006397449E-04
  4.44115725547E-04  2.20793881999E-04  1.03925445475E-04  4.61207080478E-05
  1.92110930986E-05  7.47430974573E-06  2.70185172268E-06  9.02293747626E-07
  2.76667736604E-07  7.73768824046E-08  1.95973402991E-08  4.46021758824E-09
2p    1  0.00          Wavefunction
  6.53376297280E-13  7.59031975267E-13  8.81772941376E-13  1.02436201040E-12
  1.19000876429E-12  1.38244179762E-12  1.60599264575E-12  1.86569328461E-12
  2.16738939710E-12  2.51787195538E-12  2.92503008096E-12  3.39802862342E-12
  3.94751445488E-12  4.58585612374E-12  5.32742226227E-12  6.18890501458E-12
  7.18969576533E-12  8.35232162648E-12  9.70295250708E-12  1.12719901800E-11
  1.30947526047E-11  1.52122689106E-11  1.76722029342E-11  2.05299260996E-11
  2.38497637908E-11  2.77064432720E-11  3.21867757472E-11  3.73916104203E-11
  4.34381045414E-11  5.04623605357E-11  5.86224895758E-11  6.81021705549E-11
  7.91147845723E-11  9.19082179949E-11  1.06770442208E-10  1.24035995654E-10
  1.44093514058E-10  1.67394478356E-10  1.94463377211E-10  2.25909512896E-10
  2.62440716262E-10  3.04879279521E-10  3.54180465473E-10  4.11454009805E-10
  4.77989100467E-10  5.55283396393E-10  6.45076738754E-10  7.49390313553E-10
  8.70572147104E-10  1.01134995843E-09  1.17489255829E-09  1.36488117680E-09
  1.58559232532E-09  1.84199405758E-09  2.13985779693E-09  2.48588824681E-09
  2.88787430858E-09  3.35486440379E-09  3.89737014718E-09  4.52760295483E-09
  5.25974891338E-09  6.11028809721E-09  7.09836552108E-09  8.24622207776E-09
  9.57969516073E-09  1.11288002398E-08  1.29284064805E-08  1.50190216135E-08
  1.74477037205E-08  2.02691204587E-08  2.35467795644E-08  2.73544583307E-08
  3.17778642330E-08  3.69165640770E-08  4.28862250862E-08  4.98212183671E-08
  5.78776433419E-08  6.72368412120E-08  7.81094765172E-08  9.07402786354E-08
  1.05413549914E-07  1.22459564367E-07  1.42262000896E-07  1.65266578271E-07
  1.91991086093E-07  2.23037037386E-07  2.59103204865E-07  3.01001345271E-07
  3.49674465317E-07  4.06218039814E-07  4.71904658870E-07  5.48212657899E-07
  6.36859373545E-07  7.39839772234E-07  8.59471318345E-07  9.98446088629E-07
  1.15989130135E-06  1.34743961656E-06  1.56531078154E-06  1.81840644821E-06
  2.11242028154E-06  2.45396581732E-06  2.85072491965E-06  3.31162014308E-06
  3.84701482910E-06  4.46894537372E-06  5.19139080353E-06  6.03058560556E-06
  7.00538268722E-06  8.13767441312E-06  9.45288089497E-06  1.09805161197E-05
  1.27548441112E-05  1.48156391559E-05  1.72090662100E-05  1.99886999587E-05
  2.32167036581E-05  2.69651918491E-05  3.13178043274E-05  3.63715223630E-05
  4.22387620766E-05  4.90497840486E-05  5.69554625718E-05  6.61304623176E-05
  7.67768743422E-05  8.91283669813E-05  1.03454909793E-04  1.20068129617E-04
  1.39327356105E-04  1.61646408446E-04  1.87501163796E-04  2.17437928918E-04
  2.52082607016E-04  2.92150608356E-04  3.38457392292E-04  3.91929445886E-04
  4.53615397435E-04  5.24696831109E-04  6.06498216274E-04  7.00495206157E-04
  8.08320426933E-04  9.31765828639E-04  1.07278080140E-03  1.23346572287E-03
  1.41606159504E-03  1.62293817343E-03  1.85658563944E-03  2.11961828157E-03
  2.41480200710E-03  2.74511866392E-03  3.11387495767E-03  3.52484587800E-03
  3.98240568043E-03  4.49154585532E-03  5.05764165652E-03  5.68590601333E-03
  6.38082630999E-03  7.14638439045E-03  7.98682219318E-03  8.90632758549E-03
  9.90871922419E-03  1.09972970265E-02  1.21746839701E-02  1.34426639503E-02
  1.48020285015E-02  1.62524509967E-02  1.77924131278E-02  1.94192146064E-02
  2.11291018278E-02  2.29175535884E-02  2.47797602333E-02  2.67113258438E-02
  2.87092105615E-02  3.07729124609E-02  3.29058672688E-02  3.51170228782E-02
  3.74225281516E-02  3.98474661497E-02  4.24275639361E-02  4.52108255299E-02
  4.82590597365E-02  5.16493064362E-02  5.54751979308E-02  5.98483212943E-02
  6.48996702650E-02  7.07812902737E-02  7.76682302981E-02  8.57609244798E-02
  9.52881361772E-02  1.06510611579E-01  1.19725606305E-01  1.35272463410E-01
  1.53539431048E-01  1.74971911929E-01  2.00082328213E-01  2.29461816360E-01
  2.63793790924E-01  3.03870461160E-01  3.50607732732E-01  3.25275460161E-01
3d    2  0.00          Wavefunction
  6.72091669059E-20  8.41537660551E-20  1.05370393166E-19  1.31936100741E-19
  1.65199484938E-19  2.06849146447E-19  2.58999411540E-19  3.24297664893E-19
  4.06058742875E-19  5.08433209714E-19  6.36618059028E-19  7.97120536849E-19
  9.98088479041E-19  1.24972393250E-18  1.56480105749E-18  1.95931460206E-18
  2.45329186829E-18  3.07180938920E-18  3.84626592762E-18  4.81597642023E-18
  6.03016778259E-18  7.55047789128E-18  9.45408460286E-18  1.18376236529E-17
  1.48220943256E-17  1.85590019277E-17  2.32380488869E-17  2.90967649101E-17
  3.64325650716E-17  4.56178479550E-17  5.71189002990E-17  7.15195678333E-17
  8.95508939425E-17  1.12128230754E-16  1.40397706573E-16  1.75794408569E-16
  2.20115234327E-16  2.75610110536E-16  3.45096209502E-16  4.32100961620E-16
  5.41041123778E-16  6.77446994014E-16  8.48243154578E-16  1.06209999520E-15
  1.32987386148E-15  1.66515817228E-15  2.08497348346E-15  2.61063152854E-15
  3.26881709908E-15  4.09294268580E-15  5.12484464821E-15  6.41690701792E-15
  8.03472074956E-15  1.00604134148E-14  1.25968183696E-14  1.57726950406E-14
  1.97492653358E-14  2.47283979960E-14  3.09628563630E-14  3.87691297846E-14
  4.85435000371E-14  6.07821583661E-14  7.61063943762E-14  9.52941354656E-14
  1.19319437884E-13  1.49401934150E-13  1.87068746987E-13  2.34232012786E-13
  2.93285950015E-13  3.67228400145E-13  4.59813011012E-13  5.75739788020E-13