<PP_INFO>
Generated using APE Version-2.x
Author: Unknown Generation date: 2018/02/09
Pseudopotential for: H
Exchange-correlation: 
    0        The Pseudo was generated with a Non-Relativistic Calculation
State   n   l    occ     rc         ev
1s      1   0    1.00    1.25     -0.233457
2p      2   1    0.00    1.25      0.000000
3d      3   2    0.00    1.25      0.000000
</PP_INFO>
<PP_HEADER>
   0                   Version Number
  H                    Element
   NC                  Norm - Conserving pseudopotential
    F                  Nonlinear Core Correction
                            Exchange-Correlation functional
    1.00000000000      Z valence
    0.00000000000      Total energy
  0.0000000  0.0000000 Suggested cutoff for wfc and rho
    2                  Max angular momentum component
  200                  Number of points in mesh
    3    2             Number of Wavefunctions, Number of Projectors
 Wavefunctions         nl  l   occ
                       1s  0  1.00
                       2p  1  0.00
                       3d  2  0.00
</PP_HEADER>
<PP_MESH>
  <PP_R>
  9.99999974738E-06  1.07782520927E-05  1.16170721108E-05  1.25211734952E-05
  1.34956367836E-05  1.45459379080E-05  1.56779789657E-05  1.68981213865E-05
  1.82132216797E-05  1.96306699642E-05  2.11584314967E-05  2.28050914318E-05
  2.45799030658E-05  2.64928398349E-05  2.85546513605E-05  3.07769238556E-05
  3.31721452333E-05  3.57537752811E-05  3.85363212980E-05  4.15354196166E-05
  4.47679234712E-05  4.82519977027E-05  5.20072208353E-05  5.60546950962E-05
  6.04171649987E-05  6.51191451531E-05  7.01870580249E-05  7.56493824146E-05
  8.15368134917E-05  8.78824352847E-05  9.47219065945E-05  1.02093661376E-04
  1.10039124718E-04  1.18602945623E-04  1.27833247915E-04  1.37781900665E-04
  1.48504809669E-04  1.60062231603E-04  1.72519112631E-04  1.85945453371E-04
  2.00416702255E-04  2.16014179506E-04  2.32825534112E-04  2.50945236366E-04
  2.70475108733E-04  2.91524898037E-04  3.14212892170E-04  3.38666584813E-04
  3.65023391869E-04  3.93431423668E-04  4.24050317259E-04  4.57052133485E-04
  4.92622323864E-04  5.30960772722E-04  5.72282920428E-04  6.16820974053E-04
  6.64825212233E-04  7.16565391603E-04  7.72332262668E-04  8.32439203663E-04
  8.97223981556E-04  9.67050650109E-04  1.04231159566E-03  1.12342974209E-03
  1.21086092745E-03  1.30509646549E-03  1.40666590657E-03  1.51614001342E-03
  1.63413396852E-03  1.76131083109E-03  1.89838526306E-03  2.04612754511E-03
  2.20536790521E-03  2.37700118399E-03  2.56199186328E-03  2.76137948594E-03
  2.97628449748E-03  3.20791454238E-03  3.45757125029E-03  3.72665755054E-03
  4.01668555575E-03  4.32928505905E-03  4.66621269262E-03  5.02936179896E-03
  5.42077307038E-03  5.84264601657E-03  6.29735132457E-03  6.78744418069E-03
  7.31567862925E-03  7.88502304869E-03  8.49867683222E-03  9.16008836658E-03
  9.87297441002E-03  1.06413409784E-02  1.14695058567E-02  1.23621228624E-02
  1.33242079978E-02  1.43611676363E-02  1.54788289039E-02  1.66834724241E-02
  1.79818676110E-02  1.93813107105E-02  2.08896658001E-02  2.25154089813E-02
  2.42676760100E-02  2.61563136347E-02  2.81919349291E-02  3.03859789322E-02
  3.27507749287E-02  3.52996117330E-02  3.80468123643E-02  4.10078145344E-02
  4.41992573987E-02  4.76390750586E-02  5.13465973414E-02  5.53426584227E-02
  5.96497139027E-02  6.42919669940E-02  6.92955045301E-02  7.46884435581E-02
  8.05010893415E-02  8.67661056576E-02  9.35186983501E-02  1.00796813166E-01
  1.08641348988E-01  1.17096387667E-01  1.26209441729E-01  1.36031721380E-01
  1.46618422267E-01  1.58029035655E-01  1.70327682727E-01  1.83583474917E-01
  1.97870902269E-01  2.13270252034E-01  2.29868059836E-01  2.47757595955E-01
  2.67039389453E-01  2.87821793091E-01  3.10221592207E-01  3.34364660986E-01
  3.60386669803E-01  3.88433847610E-01  4.18663803662E-01  4.51246413194E-01
  4.86364772019E-01  5.24216225424E-01  5.65013477142E-01  6.08985784623E-01
  6.56380247333E-01  7.07463195312E-01  7.62521685799E-01  8.21865116329E-01
  8.85826963374E-01  9.54766656292E-01  1.02907159712E+00  1.10915933753E+00
  1.19547992528E+00  1.28851843319E+00  1.38879768499E+00  1.49688119326E+00
  1.61337632613E+00  1.73893772027E+00  1.87427095960E+00  2.02013654029E+00
  2.17735414429E+00  2.34680724550E+00  2.52944807439E+00  2.72630296898E+00
  2.93847814229E+00  3.16716589865E+00  3.41365133373E+00  3.67931955609E+00
  3.96566347068E+00  4.27429216815E+00  4.60693996698E+00  4.96547615943E+00
  5.35191551585E+00  5.76842960657E+00  6.21735900490E+00  6.70122643983E+00
  7.22275097232E+00  7.78486327488E+00  8.39072210033E+00  9.04373203215E+00
  9.74756261634E+00  1.05061689822E+01  1.13238140679E+01  1.22050925758E+01
  1.31549567919E+01  1.41787444153E+01  1.52822085526E+01  1.64715500474E+01
  1.77534523253E+01  1.91351189511E+01  2.06243141088E+01  2.22294062319E+01
  2.39594150290E+01  2.58240621699E+01  2.78338259156E+01  3.00000000000E+01
  </PP_R>
  <PP_RAB>
  7.49453391715E-07  8.07779779167E-07  8.70645431517E-07  9.38403618128E-07
  1.01143510164E-06  1.09015027762E-06  1.17499148079E-06  1.26643547066E-06
  1.36499611067E-06  1.47122725580E-06  1.58572586492E-06  1.70913535537E-06
  1.84214921861E-06  1.98551491720E-06  2.14003808520E-06  2.30658705529E-06
  2.48609773836E-06  2.67957888280E-06  2.88811774306E-06  3.11288618944E-06
  3.35514729331E-06  3.61626242489E-06  3.89769890333E-06  4.20103824227E-06
  4.52798503700E-06  4.88037654334E-06  5.26019300201E-06  5.66956876640E-06
  6.11080429647E-06  6.58637908602E-06  7.09896559603E-06  7.65144427241E-06
  8.24691973244E-06  8.88873821097E-06  9.58050636438E-06  1.03261115379E-05
  1.11297436104E-05  1.19959185390E-05  1.29295037363E-05  1.39357454224E-05
  1.50202981056E-05  1.61892563579E-05  1.74491890626E-05  1.88071763280E-05
  2.02708492736E-05  2.18484329122E-05  2.35487923707E-05  2.53814827061E-05
  2.73568026003E-05  2.94858522324E-05  3.17805956556E-05  3.42539280285E-05
  3.69197480782E-05  3.97930362037E-05  4.28899386571E-05  4.62278582763E-05
  4.98255522793E-05  5.37032376689E-05  5.78827048410E-05  6.23874400342E-05
  6.72427573092E-05  7.24759407994E-05  7.81163980322E-05  8.41958251832E-05
  9.07483851900E-05  9.78108997289E-05  1.05423056132E-04  1.13627630408E-04
  1.22470727616E-04  1.32002040957E-04  1.42275131012E-04  1.53347726730E-04
  1.65282049829E-04  1.78145164445E-04  1.92009353999E-04  2.06952527383E-04
  2.23058656770E-04  2.40418249485E-04  2.59128856609E-04  2.79295621157E-04
  3.01031868926E-04  3.24459745317E-04  3.49710901730E-04  3.76927235361E-04
  4.06261686595E-04  4.37879098433E-04  4.71957142824E-04  5.08687319080E-04
  5.48276029990E-04  5.90945741688E-04  6.36936233790E-04  6.86505946817E-04
  7.39933434483E-04  7.97518929012E-04  8.59586028272E-04  9.26483514210E-04
  9.98587312812E-04  1.07630260659E-03  1.16006611149E-03  1.25034853097E-03
  1.34765720109E-03  1.45253894148E-03  1.56558312812E-03  1.68742500531E-03
  1.81874925542E-03  1.96029384635E-03  2.11285417854E-03  2.27728755466E-03
  2.45451799717E-03  2.64554144078E-03  2.85143132907E-03  3.07334464660E-03
  3.31252842055E-03  3.57032672828E-03  3.84818825027E-03  4.14767441092E-03
  4.47046815286E-03  4.81838339410E-03  5.19337522126E-03  5.59755087606E-03
  6.03318159679E-03  6.50271538137E-03  7.00879074378E-03  7.55425154096E-03
  8.14216295368E-03  8.77582871113E-03  9.45880965601E-03  1.01949437544E-02
  1.09883676632E-02  1.18435399753E-02  1.27652662748E-02  1.37587261415E-02
  1.48295022574E-02  1.59836117776E-02  1.72275401443E-02  1.85682775302E-02
  2.00133581203E-02  2.15709024491E-02  2.32496630336E-02  2.50590735576E-02
  2.70093018836E-02  2.91113071902E-02  3.13769015570E-02  3.38188163411E-02
  3.64507737208E-02  3.92875638061E-02  4.23451277506E-02  4.56406473322E-02
  4.91926415046E-02  5.30210704635E-02  5.71474478115E-02  6.15949614525E-02
  6.63886038944E-02  7.15553126931E-02  7.71241218259E-02  8.31263248464E-02
  8.95956507366E-02  9.65684534440E-02  1.04083916171E-01  1.12184271563E-01
  1.20915039028E-01  1.30325280536E-01  1.40467876315E-01  1.51399822009E-01
  1.63182548962E-01  1.75882269427E-01  1.89570348641E-01  2.04323705856E-01
  2.20225246586E-01  2.37364328483E-01  2.55837263483E-01  2.75747859018E-01
  2.97208001359E-01  3.20338284352E-01  3.45268687090E-01  3.72139304318E-01
  4.01101133685E-01  4.32316924272E-01  4.65962091145E-01  5.02225701086E-01
  5.41311535046E-01  5.83439233279E-01  6.28845529589E-01  6.77785581648E-01
  7.30534404832E-01  7.87388417656E-01  8.48667107473E-01  9.14714825818E-01
  9.85902723462E-01  1.06263083608E+00  1.14533033220E+00  1.23446593617E+00
  1.33053853960E+00  1.43408801611E+00  1.54569625511E+00  1.66599043172E+00
  1.79564653106E+00  1.93539314700E+00  2.08601557638E+00  2.24836023194E+00
  </PP_RAB>
</PP_MESH>
<PP_LOCAL>
 -6.24597661163E+00 -6.24597661163E+00 -6.24597661162E+00 -6.24597661162E+00
 -6.24597661162E+00 -6.24597661162E+00 -6.24597661162E+00 -6.24597661162E+00
 -6.24597661162E+00 -6.24597661162E+00 -6.24597661162E+00 -6.24597661162E+00
 -6.24597661161E+00 -6.24597661161E+00 -6.24597661161E+00 -6.24597661161E+00
 -6.24597661160E+00 -6.24597661160E+00 -6.24597661159E+00 -6.24597661159E+00
 -6.24597661158E+00 -6.24597661157E+00 -6.24597661157E+00 -6.24597661156E+00
 -6.24597661154E+00 -6.24597661153E+00 -6.24597661152E+00 -6.24597661150E+00
 -6.24597661148E+00 -6.24597661145E+00 -6.24597661142E+00 -6.24597661139E+00
 -6.24597661135E+00 -6.24597661131E+00 -6.24597661125E+00 -6.24597661119E+00
 -6.24597661112E+00 -6.24597661104E+00 -6.24597661095E+00 -6.24597661084E+00
 -6.24597661071E+00 -6.24597661056E+00 -6.24597661039E+00 -6.24597661019E+00
 -6.24597660995E+00 -6.24597660968E+00 -6.24597660937E+00 -6.24597660900E+00
 -6.24597660858E+00 -6.24597660808E+00 -6.24597660751E+00 -6.24597660685E+00
 -6.24597660607E+00 -6.24597660517E+00 -6.24597660413E+00 -6.24597660292E+00
 -6.24597660151E+00 -6.24597659987E+00 -6.24597659797E+00 -6.24597659576E+00
 -6.24597659319E+00 -6.24597659020E+00 -6.24597658673E+00 -6.24597658270E+00
 -6.24597657801E+00 -6.24597657256E+00 -6.24597656623E+00 -6.24597655886E+00
 -6.24597655030E+00 -6.24597654035E+00 -6.24597652876E+00 -6.24597651529E+00
 -6.24597649962E+00 -6.24597648137E+00 -6.24597646012E+00 -6.24597643538E+00
 -6.24597640655E+00 -6.24597637295E+00 -6.24597633376E+00 -6.24597628802E+00
 -6.24597623460E+00 -6.24597617217E+00 -6.24597609912E+00 -6.24597601357E+00
 -6.24597591326E+00 -6.24597579546E+00 -6.24597565691E+00 -6.24597549366E+00
 -6.24597530091E+00 -6.24597507281E+00 -6.24597480219E+00 -6.24597448018E+00
 -6.24597409584E+00 -6.24597363547E+00 -6.24597308194E+00 -6.24597241365E+00
 -6.24597160322E+00 -6.24597061575E+00 -6.24596940655E+00 -6.24596791810E+00
 -6.24596607598E+00 -6.24596378356E+00 -6.24596091479E+00 -6.24595730468E+00
 -6.24595273648E+00 -6.24594692466E+00 -6.24593949193E+00 -6.24592993863E+00
 -6.24591760153E+00 -6.24590159867E+00 -6.24588075524E+00 -6.24585350416E+00
 -6.24581775254E+00 -6.24577070249E+00 -6.24570861052E+00 -6.24562646478E+00
 -6.24551755204E+00 -6.24537287727E+00 -6.24518038602E+00 -6.24492392359E+00
 -6.24458184349E+00 -6.24412514926E+00 -6.24351501725E+00 -6.24269950026E+00
 -6.24160915124E+00 -6.24015122877E+00 -6.23820204967E+00 -6.23559693546E+00
 -6.23211705732E+00 -6.22747232006E+00 -6.22127924592E+00 -6.21303263950E+00
 -6.20206966630E+00 -6.18752491734E+00 -6.16827515251E+00 -6.14287287053E+00
 -6.10946887399E+00 -6.06572592659E+00 -6.00872891094E+00 -5.93490220467E+00
 -5.83995301609E+00 -5.71887082825E+00 -5.56602818064E+00 -5.37544601457E+00
 -5.14130479715E+00 -4.85879383505E+00 -4.52538283058E+00 -4.14255106999E+00
 -3.71789119368E+00 -3.26727988689E+00 -2.81643821039E+00 -2.40065465884E+00
 -2.06070549874E+00 -1.83224049773E+00 -1.72611074053E+00 -1.70235230763E+00
 -1.66304344421E+00 -1.55217058969E+00 -1.44009483733E+00 -1.33611159652E+00
 -1.23963655741E+00 -1.15012757923E+00 -1.06708167298E+00 -9.90032166616E-01
 -9.18546084998E-01 -8.52221716147E-01 -7.90686354058E-01 -7.33594204265E-01
 -6.80624440691E-01 -6.31479402796E-01 -5.85882922893E-01 -5.43578774246E-01
 -5.04329231221E-01 -4.67913733394E-01 -4.34127646123E-01 -4.02781110606E-01
 -3.73697976979E-01 -3.46714814443E-01 -3.21679992867E-01 -2.98452830706E-01
 -2.76902804450E-01 -2.56908815148E-01 -2.38358507897E-01 -2.21147640476E-01
 -2.05179497554E-01 -1.90364347212E-01 -1.76618936695E-01 -1.63866024578E-01
 -1.52033946720E-01 -1.41056213542E-01 -1.30871136401E-01 -1.21421480932E-01
 -1.12654145422E-01 -1.04519862412E-01 -9.69729218362E-02 -8.99709141637E-02
 -8.34744920766E-02 -7.74471493617E-02 -7.18550157663E-02 -6.66666666667E-02
</PP_LOCAL>
<PP_NONLOCAL>
  <PP_BETA>
    1    1             Beta    L
   200
  2.28189552452E-09  2.65089455271E-09  3.07956339547E-09  3.57755109383E-09
  4.15606700865E-09  4.82813313559E-09  5.60887722128E-09  6.51587327852E-09
  7.56953716522E-09  8.79358613132E-09  1.02155726778E-08  1.18675047446E-08
  1.37865661871E-08  1.60159537596E-08  1.86058494441E-08  2.16145500123E-08
  2.51097792464E-08  2.91702123541E-08  3.38872468939E-08  3.93670600711E-08
  4.57329987141E-08  5.31283557261E-08  6.17195955101E-08  7.17001009685E-08
  8.32945264184E-08  9.67638544066E-08  1.12411270247E-07  1.30588986512E-07
  1.51706171098E-07  1.76238157311E-07  2.04737143291E-07  2.37844621616E-07
  2.76305818853E-07  3.20986470097E-07  3.72892306072E-07  4.33191691434E-07
  5.03241923851E-07  5.84619785841E-07  6.79157037052E-07  7.88981645906E-07
  9.16565688689E-07  1.06478099428E-06  1.23696378702E-06  1.43698978281E-06
  1.66936142873E-06  1.93930925004E-06  2.25290958558E-06  2.61722136192E-06
  3.04044498479E-06  3.53210692441E-06  4.10327414953E-06  4.76680323698E-06
  5.53762976393E-06  6.43310449688E-06  7.47338394468E-06  8.68188406658E-06
  1.00858073480E-05  1.17167551076E-05  1.36114388190E-05  1.58125064567E-05
  1.83695024681E-05  2.13399829784E-05  2.47908113306E-05  2.87996631213E-05
  3.34567746091E-05  3.88669738488E-05  4.51520402696E-05  5.24534458067E-05
  6.09355392839E-05  7.07892457206E-05  8.22363638251E-05  9.55345583998E-05
  1.10983160021E-04  1.28929902526E-04  1.49778749938E-04  1.73998988983E-04
  2.02135791822E-04  2.34822486708E-04  2.72794812692E-04  3.16907479161E-04
  3.68153402796E-04  4.27686054805E-04  4.96845421201E-04  5.77188160148E-04
  6.70522634763E-04  7.78949609341E-04  9.04909524250E-04  1.05123741253E-03
  1.22122669287E-03  1.41870327295E-03  1.64811162837E-03  1.91461479124E-03
  2.22421049412E-03  2.58386607690E-03  3.00167518425E-03  3.48703976845E-03
  4.05088147765E-03  4.70588716474E-03  5.46679401227E-03  6.35072064847E-03
  7.37755164990E-03  8.57038400558E-03  9.95604548315E-03  1.15656964144E-02
  1.34355282383E-02  1.56075742375E-02  1.81306503186E-02  2.10614464543E-02
  2.44657925784E-02  2.84201263317E-02  3.30131941542E-02  3.83480218241E-02
  4.45441956831E-02  5.17405014336E-02  6.00979734881E-02  6.98034142334E-02
  8.10734489495E-02  9.41591879963E-02  1.09351572389E-01  1.26987480677E-01
  1.47456671941E-01  1.71209628381E-01  1.98766336158E-01  2.30725996969E-01
  2.67777583300E-01  3.10711019405E-01  3.60428561322E-01  4.17955623567E-01
  4.84449801470E-01  5.61206086727E-01  6.49655159660E-01  7.51350017657E-01
  8.67933878283E-01  1.00107905745E+00  1.15238214565E+00  1.32319514065E+00
  1.51436533122E+00  1.72584929437E+00  1.95616007779E+00  2.20160513541E+00
  2.45528270059E+00  2.70583757919E+00  2.93605147337E+00  3.12148149545E+00
  3.22958862806E+00  3.22012890114E+00  3.04798727326E+00  2.67000276757E+00
  2.05739550863E+00  1.21467675228E+00  2.03658448645E-01 -8.33650974497E-01
 -1.66825391649E+00 -2.02252752724E+00 -1.69873313417E+00 -8.28198648218E-01
 -8.71085273670E-02  0.00000000000E+00  0.00000000000E+00  0.00000000000E+00
  0.00000000000E+00  0.00000000000E+00  0.00000000000E+00  0.00000000000E+00
  0.00000000000E+00  0.00000000000E+00  0.00000000000E+00  0.00000000000E+00
  0.00000000000E+00  0.00000000000E+00  0.00000000000E+00  0.00000000000E+00
  0.00000000000E+00  0.00000000000E+00  0.00000000000E+00  0.00000000000E+00
  0.00000000000E+00  0.00000000000E+00  0.00000000000E+00  0.00000000000E+00
  0.00000000000E+00  0.00000000000E+00  0.00000000000E+00  0.00000000000E+00
  0.00000000000E+00  0.00000000000E+00  0.00000000000E+00  0.00000000000E+00
  0.00000000000E+00  0.00000000000E+00  0.00000000000E+00  0.00000000000E+00
  0.00000000000E+00  0.00000000000E+00  0.00000000000E+00  0.00000000000E+00
  0.00000000000E+00  0.00000000000E+00  0.00000000000E+00  0.00000000000E+00
  </PP_BETA>
  <PP_BETA>
    2    2             Beta    L
   200
  3.54696026238E-14  4.44121059476E-14  5.56091697902E-14  6.96292080452E-14
  8.71839416285E-14  1.09164528669E-13  1.36686803751E-13  1.71147922749E-13
  2.14297288819E-13  2.68325360060E-13  3.35974847129E-13  4.20679945713E-13
  5.26740671917E-13  6.59541150651E-13  8.25822938293E-13  1.03402725476E-12
  1.29472349822E-12  1.62114579584E-12  2.02986482825E-12  2.54162903270E-12
  3.18241788807E-12  3.98476075145E-12  4.98938819618E-12  6.24729968113E-12
  7.82235251510E-12  9.79450354433E-12  1.22638681257E-11  1.53558024376E-11
  1.92272671296E-11  2.40747953591E-11  3.01444697083E-11  3.77444144551E-11
  4.72604373626E-11  5.91756150365E-11  7.40948160896E-11  9.27754070239E-11
  1.16165699598E-10  1.45453091444E-10  1.82124343770E-10  2.28041056118E-10
  2.85534169624E-10  3.57522296178E-10  4.47659880436E-10  5.60522716036E-10
  7.01840233677E-10  8.78786353048E-10  1.10034366358E-09  1.37775942148E-09
  1.72511651151E-09  2.16004835815E-09  2.70463407820E-09  3.38651931690E-09
  4.24031966621E-09  5.30937790902E-09  6.64796429509E-09  8.32403154441E-09
  1.04226644344E-08  1.30503990872E-08  1.63406312242E-08  2.04603879327E-08
  2.56188067126E-08  3.20777522338E-08  4.01651097597E-08  5.02914300668E-08
  6.29707708309E-08  7.88467924743E-08  9.87254332139E-08  1.23615822028E-07
  1.54781506458E-07  1.93804595769E-07  2.42666075637E-07  3.03846371449E-07
  3.80451265183E-07  4.76369557868E-07  5.96470481139E-07  7.46850879131E-07
  9.35144708458E-07  1.17091056740E-06  1.46611692629E-06  1.83574969054E-06
  2.29857293739E-06  2.87808144261E-06  3.60369334835E-06  4.51224351263E-06
  5.64985334264E-06  7.07427202280E-06  8.85780797413E-06  1.10909993373E-05
  1.38872097781E-05  1.73883828732E-05  2.17722471268E-05  2.72613372804E-05
  3.41342897320E-05  4.27399852638E-05  5.35152567162E-05  6.70070600808E-05
  8.39002338549E-05  1.05052254876E-04  1.31536753572E-04  1.64697995555E-04
  2.06219092186E-04  2.58207398206E-04  3.23301424811E-04  4.04804685466E-04
  5.06853254071E-04  6.34625519033E-04  7.94604747700E-04  9.94907739495E-04
  1.24569617529E-03  1.55969142904E-03  1.95281879928E-03  2.44501359426E-03
  3.06122957524E-03  3.83270030809E-03  4.79851645544E-03  6.00759751854E-03
  7.52115567159E-03  9.41577289614E-03  1.17872414934E-02  1.47553531759E-02
  1.84698642526E-02  2.31179147047E-02  2.89332375164E-02  3.62075608387E-02
  4.53046768911E-02  5.66777220793E-02  7.08902708641E-02  8.86418698329E-02
  1.10798590262E-01  1.38428992921E-01  1.72845472091E-01  2.15650106563E-01
  2.68782627372E-01  3.34565509464E-01  4.15736911043E-01  5.15455382946E-01
  6.37249853798E-01  7.84873084881E-01  9.61995423434E-01  1.17164800766E+00
  1.41529289367E+00  1.69136988466E+00  1.99316516423E+00  2.30590310796E+00
  2.60314622808E+00  2.84300027222E+00  2.96538901979E+00  2.89288938781E+00
  2.53924842563E+00  1.83125220792E+00  7.49658061548E-01 -6.09780447287E-01
 -1.96993045189E+00 -2.85271854408E+00 -2.72589334931E+00 -1.48723082154E+00
 -1.73823849965E-01  0.00000000000E+00  0.00000000000E+00  0.00000000000E+00
  0.00000000000E+00  0.00000000000E+00  0.00000000000E+00  0.00000000000E+00
  0.00000000000E+00  0.00000000000E+00  0.00000000000E+00  0.00000000000E+00
  0.00000000000E+00  0.00000000000E+00  0.00000000000E+00  0.00000000000E+00
  0.00000000000E+00  0.00000000000E+00  0.00000000000E+00  0.00000000000E+00
  0.00000000000E+00  0.00000000000E+00  0.00000000000E+00  0.00000000000E+00
  0.00000000000E+00  0.00000000000E+00  0.00000000000E+00  0.00000000000E+00
  0.00000000000E+00  0.00000000000E+00  0.00000000000E+00  0.00000000000E+00
  0.00000000000E+00  0.00000000000E+00  0.00000000000E+00  0.00000000000E+00
  0.00000000000E+00  0.00000000000E+00  0.00000000000E+00  0.00000000000E+00
  0.00000000000E+00  0.00000000000E+00  0.00000000000E+00  0.00000000000E+00
  </PP_BETA>
  <PP_DIJ>
    2                  Number of nonzero Dij
    1    1 -9.60876103098E-01
    2    2 -1.67213958246E-01
  </PP_DIJ>
</PP_NONLOCAL>
<PP_PSWFC>
1s    0  1.00          Wavefunction
  1.40866308989E-05  1.51829262799E-05  1.63645411080E-05  1.76381153895E-05
  1.90108058906E-05  2.04903263545E-05  2.20849908482E-05  2.38037604832E-05
  2.56562937712E-05  2.76530009003E-05  2.98051022335E-05  3.21246913616E-05
  3.46248030616E-05  3.73194865453E-05  4.02238844077E-05  4.33543177195E-05
  4.67283777429E-05  5.03650247841E-05  5.42846947393E-05  5.85094139333E-05
  6.30629228947E-05  6.79708097641E-05  7.32606540850E-05  7.89621817851E-05
  8.51074322195E-05  9.17309382128E-05  9.88699201147E-05  1.06564494957E-04
  1.14857901887E-04  1.23796745150E-04  1.33431255975E-04  1.43815574848E-04
  1.55008055747E-04  1.67071594062E-04  1.80073980029E-04  1.94088279669E-04
  2.09193245383E-04  2.25473758485E-04  2.43021306195E-04  2.61934495738E-04
  2.82319608455E-04  3.04291197048E-04  3.27972729290E-04  3.53497281843E-04
  3.81008288061E-04  4.10660344002E-04  4.42620077154E-04  4.77067082776E-04
  5.14194933104E-04  5.54212265093E-04  5.97343952816E-04  6.43832371089E-04
  6.93938757444E-04  7.47944680078E-04  8.06153620039E-04  8.68892676539E-04
  9.36514404957E-04  1.00939879787E-03  1.08795542024E-03  1.17262571070E-03
  1.26388546198E-03  1.36224749424E-03  1.46826453642E-03  1.58253233177E-03
  1.70569298495E-03  1.83843856950E-03  1.98151501593E-03  2.13572630213E-03
  2.30193896977E-03  2.48108699179E-03  2.67417701836E-03  2.88229403064E-03
  3.10660743391E-03  3.34837762417E-03  3.60896306486E-03  3.88982791316E-03
  4.19255023823E-03  4.51883087737E-03  4.87050297896E-03  5.24954228522E-03
  5.65807821165E-03  6.09840578416E-03  6.57299849956E-03  7.08452217972E-03
  7.63584989520E-03  8.23007803898E-03  8.87054363736E-03  9.56084299041E-03
  1.03048517415E-02  1.11067464809E-02  1.19710279973E-02  1.29025462945E-02
  1.39065275027E-02  1.49886028163E-02  1.61548395989E-02  1.74117748047E-02
  1.87664508678E-02  2.02264542198E-02  2.17999565979E-02  2.34957593081E-02
  2.53233406095E-02  2.72929063794E-02  2.94154442131E-02  3.17027810975E-02
  3.41676447768E-02  3.68237288959E-02  3.96857619669E-02  4.27695801399E-02
  4.60922036846E-02  4.96719169777E-02  5.35283516581E-02  5.76825724274E-02
  6.21571647449E-02  6.69763233656E-02  7.21659402929E-02  7.77536902342E-02
  8.37691110392E-02  9.02436758278E-02  9.72108525516E-02  1.04706145517E-01
  1.12767111886E-01  1.21433344286E-01  1.30746408326E-01  1.40749720932E-01
  1.51488351883E-01  1.63008726622E-01  1.75358203216E-01  1.88584490114E-01
  2.02734864065E-01  2.17855139116E-01  2.33988328239E-01  2.51172929071E-01
  2.69440755424E-01  2.88814227902E-01  3.09303032725E-01  3.30900061609E-01
  3.53576563558E-01  3.77276480813E-01  4.01910019023E-01  4.27346633230E-01
  4.53407817117E-01  4.79860384241E-01  5.06411339755E-01  5.32705948830E-01
  5.58331151779E-01  5.82826903221E-01  6.05708033158E-01  6.26498380336E-01
  6.44776625383E-01  6.60228853367E-01  6.72696187597E-01  6.82197721249E-01
  6.88902506255E-01  6.93026641746E-01  6.94656156497E-01  6.93563011056E-01
  6.89190597626E-01  6.80993918513E-01  6.68762120086E-01  6.52442495349E-01
  6.32061126202E-01  6.07730010199E-01  5.79653228941E-01  5.48130590212E-01
  5.13558062261E-01  4.76424358815E-01  4.37303057446E-01  3.96839774722E-01
  3.55734141883E-01  3.14716727109E-01  2.74521486376E-01  2.35855001359E-01
  1.99364349333E-01  1.65606064191E-01  1.35018998577E-01  1.07903938888E-01
  8.44124444892E-02  6.45464954713E-02  4.81693207889E-02  3.50263794923E-02
  2.47740769240E-02  1.70128482283E-02  1.13207563504E-02  7.28396217029E-03
  4.52118718349E-03  2.70049824455E-03  1.54795819824E-03  8.49006414343E-04
  4.44115726757E-04  2.20793881853E-04  1.03925445274E-04  4.61207074608E-05
  1.92110938073E-05  7.47430998967E-06  2.70185164540E-06  9.02293698117E-07
  2.76667655169E-07  7.73768807404E-08  1.95973376207E-08  4.46021757798E-09
2p    1  0.00          Wavefunction
  6.53376208600E-13  7.59031872248E-13  8.81772821697E-13  1.02436187137E-12
  1.19000860277E-12  1.38244160999E-12  1.60599242777E-12  1.86569303138E-12
  2.16738910293E-12  2.51787161364E-12  2.92502968396E-12  3.39802816222E-12
  3.94751391910E-12  4.58585550133E-12  5.32742153921E-12  6.18890417459E-12
  7.18969478950E-12  8.35232049286E-12  9.70295119015E-12  1.12719886501E-11
  1.30947508274E-11  1.52122668459E-11  1.76722005357E-11  2.05299233132E-11
  2.38497605537E-11  2.77064395116E-11  3.21867713787E-11  3.73916053454E-11
  4.34380986457E-11  5.04623536867E-11  5.86224816193E-11  6.81021613118E-11
  7.91147738345E-11  9.19082055206E-11  1.06770427717E-10  1.24035978819E-10
  1.44093494501E-10  1.67394455636E-10  1.94463350818E-10  2.25909482234E-10
  2.62440680642E-10  3.04879238141E-10  3.54180417402E-10  4.11453953960E-10
  4.77989035592E-10  5.55283321027E-10  6.45076651200E-10  7.49390211842E-10
  8.70572028946E-10  1.01134982117E-09  1.17489239882E-09  1.36488099155E-09
  1.58559211012E-09  1.84199380758E-09  2.13985750650E-09  2.48588790941E-09
  2.88787391662E-09  3.35486394845E-09  3.89736961821E-09  4.52760234032E-09
  5.25974819950E-09  6.11028726789E-09  7.09836455765E-09  8.24622095854E-09
  9.57969386052E-09  1.11287987294E-08  1.29284047258E-08  1.50190195751E-08
  1.74477013524E-08  2.02691177076E-08  2.35467763685E-08  2.73544546180E-08
  3.17778599200E-08  3.69165590665E-08  4.28862192655E-08  4.98212116051E-08
  5.78776354864E-08  6.72368320863E-08  7.81094659158E-08  9.07402663196E-08
  1.05413535607E-07  1.22459547746E-07  1.42261981588E-07  1.65266555840E-07
  1.91991060035E-07  2.23037007115E-07  2.59103169698E-07  3.01001304418E-07
  3.49674417857E-07  4.06217984680E-07  4.71904594821E-07  5.48212583492E-07
  6.36859287107E-07  7.39839671819E-07  8.59471201693E-07  9.98445953114E-07
  1.15989114393E-06  1.34743943368E-06  1.56531056909E-06  1.81840620140E-06
  2.11241999483E-06  2.45396548425E-06  2.85072453273E-06  3.31161969361E-06
  3.84701430696E-06  4.46894476716E-06  5.19139009891E-06  6.03058478704E-06
  7.00538173640E-06  8.13767330861E-06  9.45287961195E-06  1.09805146294E-05
  1.27548423800E-05  1.48156371450E-05  1.72090638742E-05  1.99886972456E-05
  2.32167005069E-05  2.69651881890E-05  3.13178000764E-05  3.63715174260E-05
  4.22387563432E-05  4.90497773906E-05  5.69554548404E-05  6.61304533406E-05
  7.67768639197E-05  8.91283548818E-05  1.03454895748E-04  1.20068113316E-04
  1.39327337189E-04  1.61646386498E-04  1.87501138336E-04  2.17437899391E-04
  2.52082572781E-04  2.92150568676E-04  3.38457346317E-04  3.91929392641E-04
  4.53615335801E-04  5.24696759804E-04  6.06498133836E-04  7.00495110919E-04
  8.08320317007E-04  9.31765701887E-04  1.07278065542E-03  1.23346555495E-03
  1.41606140218E-03  1.62293795230E-03  1.85658538634E-03  2.11961799246E-03
  2.41480167756E-03  2.74511828911E-03  3.11387453233E-03  3.52484539636E-03
  3.98240513617E-03  4.49154524147E-03  5.05764096543E-03  5.68590523665E-03
  6.38082543871E-03  7.14638341468E-03  7.98682110379E-03  8.90632637076E-03
  9.90871787382E-03  1.09972955275E-02  1.21746823127E-02  1.34426621230E-02
  1.48020264904E-02  1.62524487898E-02  1.77924107146E-02  1.94192119762E-02
  2.11290989688E-02  2.29175504921E-02  2.47797568909E-02  2.67113222477E-02
  2.87092067055E-02  3.07729083406E-02  3.29058628802E-02  3.51170182178E-02
  3.74225232192E-02  3.98474609412E-02  4.24275584553E-02  4.52108197836E-02
  4.82590537398E-02  5.16493002059E-02  5.54751914838E-02  5.98483146683E-02
  6.48996635007E-02  7.07812833727E-02  7.76682233238E-02  8.57609175235E-02
  9.52881293441E-02  1.06510604983E-01  1.19725600087E-01  1.35272457729E-01
  1.53539426096E-01  1.74971907939E-01  2.00082325467E-01  2.29461815208E-01
  2.63793791811E-01  3.03870464491E-01  3.50607739551E-01  3.25275466233E-01
3d    2  0.00          Wavefunction
  6.72091326353E-20  8.41537231443E-20  1.05370339437E-19  1.31936033466E-19
  1.65199400702E-19  2.06849040972E-19  2.58999279474E-19  3.24297499531E-19
  4.06058535822E-19  5.08432950460E-19  6.36617734411E-19  7.97120130391E-19
  9.98087970107E-19  1.24972329526E-18  1.56480025958E-18  1.95931360299E-18
  2.45329061734E-18  3.07180782286E-18  3.84626396637E-18  4.81597396452E-18
  6.03016470776E-18  7.55047404123E-18  9.45407978214E-18  1.18376176168E-17
  1.48220867677E-17  1.85589924643E-17  2.32380370376E-17  2.90967500734E-17
  3.64325464943E-17  4.56178246940E-17  5.71188711736E-17  7.15195313648E-17
  8.95508482797E-17  1.12128173579E-16  1.40397634983E-16  1.75794318930E-16
  2.20115122088E-16  2.75609970000E-16  3.45096033535E-16  4.32100741288E-16
  5.41040847897E-16  6.77446648578E-16  8.48242722052E-16  1.06209945363E-15
  1.32987318336E-15  1.66515732320E-15  2.08497242031E-15  2.61063019735E-15
  3.26881543228E-15  4.09294059877E-15  5.12484203500E-15  6.41690374588E-15
  8.03471665259E-15  1.00604082849E-14  1.25968119464E-14  1.57726869980E-14
  1.97492552655E-14  2.47283853868E-14  3.09628405748E-14  3.87691100159E-14
  4.85434752843E-14  6.07821273728E-14  7.61063555690E-14  9.52940868743E-14
  1.19319377042E-13  1.49401857969E-13  1.87068651599E-13  2.34231893350E-13
  2.93285800466E-13  3.67228212892E-13  4.59812776549E-13  5.75739494446E-13
  7.20893318702E-13  9.02642895305E-13  1.13021462691E-12  1.41516104237E-12