<PP_INFO>
Generated using APE Version-2.x
Author: Unknown Generation date: 2018/02/12
Pseudopotential for: O
Exchange-correlation: Perdew-Wang LDA
    0        The Pseudo was generated with a Non-Relativistic Calculation
State   n   l    occ     rc         ev
2s      2   0    2.00    1.10     -0.871222
2p      2   1    4.00    1.10     -0.338261
3d      3   2    0.00    1.10      0.000000
4f      4   3    0.00    1.10      0.000000
</PP_INFO>
<PP_HEADER>
   0                   Version Number
  O                    Element
   NC                  Norm - Conserving pseudopotential
    F                  Nonlinear Core Correction
 SLA  PW   NOGX NOGC        Exchange-Correlation functional
    6.00000000000      Z valence
    0.00000000000      Total energy
  0.0000000  0.0000000 Suggested cutoff for wfc and rho
    3                  Max angular momentum component
  400                  Number of points in mesh
    4    3             Number of Wavefunctions, Number of Projectors
 Wavefunctions         nl  l   occ
                       2s  0  2.00
                       2p  1  4.00
                       3d  2  0.00
                       4f  3  0.00
</PP_HEADER>
<PP_MESH>
  <PP_R>
  2.82842705329E-05  2.93615088166E-05  3.04797749330E-05  3.16406314732E-05
  3.28457005416E-05  3.40966660221E-05  3.53952759311E-05  3.67433448604E-05
  3.81427565124E-05  3.95954663326E-05  4.11035042416E-05  4.26689774720E-05
  4.42940735127E-05  4.59810631656E-05  4.77323037184E-05  4.95502422391E-05
  5.14374189949E-05  5.33964710019E-05  5.54301357099E-05  5.75412548277E-05
  5.97327782936E-05  6.20077683978E-05  6.43694040611E-05  6.68209852772E-05
  6.93659377238E-05  7.20078175492E-05  7.47503163418E-05  7.75972662882E-05
  8.05526455282E-05  8.36205837136E-05  8.68053677784E-05  9.01114479295E-05
  9.35434438649E-05  9.71061512289E-05  1.00804548314E-04  1.04643803015E-04
  1.08629280053E-04  1.12766548471E-04  1.17061389414E-04  1.21519804209E-04
  1.26148022751E-04  1.30952512205E-04  1.35939986050E-04  1.41117413450E-04
  1.46492029001E-04  1.52071342836E-04  1.57863151119E-04  1.63875546940E-04
  1.70116931625E-04  1.76596026471E-04  1.83321884938E-04  1.90303905297E-04
  1.97551843760E-04  2.05075828120E-04  2.12886371893E-04  2.20994389019E-04
  2.29411209104E-04  2.38148593258E-04  2.47218750523E-04  2.56634354937E-04
  2.66408563246E-04  2.76555033281E-04  2.87087943049E-04  2.98022010543E-04
  3.09372514306E-04  3.21155314783E-04  3.33386876480E-04  3.46084290974E-04
  3.59265300793E-04  3.72948324208E-04  3.87152480974E-04  4.01897619041E-04
  4.17204342289E-04  4.33094039324E-04  4.49588913358E-04  4.66712013238E-04
  4.84487265653E-04  5.02939508567E-04  5.22094525924E-04  5.41979083680E-04
  5.62620967203E-04  5.84049020097E-04  6.06293184508E-04  6.29384542962E-04
  6.53355361796E-04  6.78239136251E-04  7.04070637268E-04  7.30885960081E-04
  7.58722574649E-04  7.87619378020E-04  8.17616748678E-04  8.48756602965E-04
  8.81082453658E-04  9.14639470765E-04  9.49474544645E-04  9.85636351528E-04
  1.02317542153E-03  1.06214420928E-03  1.10259716718E-03  1.14459082151E-03
  1.18818385145E-03  1.23343717100E-03  1.28041401418E-03  1.32918002331E-03
  1.37980334079E-03  1.43235470431E-03  1.48690754566E-03  1.54353809339E-03
  1.60232547928E-03  1.66335184895E-03  1.72670247659E-03  1.79246588421E-03
  1.86073396524E-03  1.93160211299E-03  2.00516935392E-03  2.08153848604E-03
  2.16081622253E-03  2.24311334086E-03  2.32854483758E-03  2.41723008903E-03
  2.50929301811E-03  2.60486226749E-03  2.70407137931E-03  2.80705898184E-03
  2.91396898315E-03  3.02495077221E-03  3.14015942765E-03  3.25975593441E-03
  3.38390740878E-03  3.51278733180E-03  3.64657579177E-03  3.78545973586E-03
  3.92963323130E-03  4.07929773661E-03  4.23466238309E-03  4.39594426703E-03
  4.56336875308E-03  4.73716978915E-03  4.91759023334E-03  5.10488219324E-03
  5.29930737828E-03  5.50113746537E-03  5.71065447852E-03  5.92815118298E-03
  6.15393149427E-03  6.38831090288E-03  6.63161691512E-03  6.88418951073E-03
  7.14638161798E-03  7.41855960678E-03  7.70110380069E-03  7.99440900829E-03
  8.29888507490E-03  8.61495745527E-03  8.94306780805E-03  9.28367461298E-03
  9.63725381151E-03  1.00042994719E-02  1.03853244794E-02  1.07808612532E-02
  1.11914624904E-02  1.16177019379E-02  1.20601751945E-02  1.25195005433E-02
  1.29963198150E-02  1.34912992855E-02  1.40051306063E-02  1.45385317715E-02
  1.50922481204E-02  1.56670533799E-02  1.62637507447E-02  1.68831740003E-02
  1.75261886880E-02  1.81936933139E-02  1.88866206049E-02  1.96059388119E-02
  2.03526530625E-02  2.11278067659E-02  2.19324830708E-02  2.27678063785E-02
  2.36349439148E-02  2.45351073604E-02  2.54695545440E-02  2.64395912006E-02
  2.74465727953E-02  2.84919064176E-02  2.95770527477E-02  3.07035280973E-02
  3.18729065287E-02  3.30868220541E-02  3.43469709188E-02  3.56551139716E-02
  3.70130791251E-02  3.84227639103E-02  3.98861381274E-02  4.14052465989E-02
  4.29822120267E-02  4.46192379581E-02  4.63186118648E-02  4.80827083399E-02
  4.99139924150E-02  5.18150230058E-02  5.37884564866E-02  5.58370504031E-02
  5.79636673250E-02  6.01712788464E-02  6.24629697378E-02  6.48419422566E-02
  6.73115206218E-02  6.98751556592E-02  7.25364296229E-02  7.52990612014E-02
  7.81669107135E-02  8.11439855028E-02  8.42344455367E-02  8.74426092201E-02
  9.07729594288E-02  9.42301497744E-02  9.78190111061E-02  1.01544558262E-01
  1.05411997075E-01  1.09426731648E-01  1.13594371908E-01  1.17920741439E-01
  1.22411885623E-01  1.27074080089E-01  1.31913839481E-01  1.36937926556E-01
  1.42153361644E-01  1.47567432448E-01  1.53187704234E-01  1.59022030397E-01
  1.65078563441E-01  1.71365766363E-01  1.77892424486E-01  1.84667657731E-01
  1.91700933362E-01  1.99002079212E-01  2.06581297421E-01  2.14449178688E-01
  2.22616717069E-01  2.31095325345E-01  2.39896850961E-01  2.49033592589E-01
  2.58518317307E-01  2.68364278443E-01  2.78585234092E-01  2.89195466344E-01
  3.00209801235E-01  3.11643629470E-01  3.23512927924E-01  3.35834281972E-01
  3.48624908659E-01  3.61902680762E-01  3.75686151763E-01  3.89994581774E-01
  4.04847964448E-01  4.20267054923E-01  4.36273398816E-01  4.52889362336E-01
  4.70138163530E-01  4.88043904736E-01  5.06631606253E-01  5.25927241307E-01
  5.45957772343E-01  5.66751188703E-01  5.88336545732E-01  6.10744005384E-01
  6.34004878360E-01  6.58151667870E-01  6.83218115041E-01  7.09239246070E-01
  7.36251421167E-01  7.64292385361E-01  7.93401321244E-01  8.23618903717E-01
  8.54987356837E-01  8.87550512805E-01  9.21353873226E-01  9.56444672682E-01
  9.92871944738E-01  1.03068659046E+00  1.06994144953E+00  1.11069137410E+00
  1.15299330542E+00  1.19690635341E+00  1.24249187927E+00  1.28981358120E+00
  1.33893758342E+00  1.38993252856E+00  1.44286967360E+00  1.49782298940E+00
  1.55486926409E+00  1.61408821038E+00  1.67556257689E+00  1.73937826386E+00
  1.80562444311E+00  1.87439368267E+00  1.94578207613E+00  2.01988937692E+00
  2.09681913769E+00  2.17667885499E+00  2.25958011953E+00  2.34563877206E+00
  2.43497506525E+00  2.52771383173E+00  2.62398465853E+00  2.72392206814E+00
  2.82766570650E+00  2.93536053812E+00  3.04715704863E+00  3.16321145510E+00
  3.28368592428E+00  3.40874879924E+00  3.53857483459E+00  3.67334544064E+00
  3.81324893693E+00  3.95848081538E+00  4.10924401341E+00  4.26574919755E+00
  4.42821505781E+00  4.59686861325E+00  4.77194552922E+00  4.95369044661E+00
  5.14235732378E+00  5.33820979135E+00  5.54152152063E+00  5.75257660599E+00
  5.97166996187E+00  6.19910773484E+00  6.43520773143E+00  6.68029986218E+00
  6.93472660263E+00  7.19884347191E+00  7.47301952948E+00  7.75763789085E+00
  8.05309626292E+00  8.35980749969E+00  8.67820017919E+00  9.00871920230E+00
  9.35182641449E+00  9.70800125111E+00  1.00777414073E+01  1.04615635336E+01
  1.08600039577E+01  1.12736194338E+01  1.17029879210E+01  1.21487093903E+01
  1.26114066636E+01  1.30917262834E+01  1.35903394166E+01  1.41079427924E+01
  1.46452596753E+01  1.52030408766E+01  1.57820658029E+01  1.63831435453E+01
  1.70071140102E+01  1.76548490927E+01  1.83272538950E+01  1.90252679911E+01
  1.97498667398E+01  2.05020626475E+01  2.12829067832E+01  2.20934902468E+01
  2.29349456941E+01  2.38084489194E+01  2.47152204984E+01  2.56565274937E+01
  2.66336852255E+01  2.76480591096E+01  2.87010665650E+01  2.97941789948E+01
  3.09289238419E+01  3.21068867240E+01  3.33297136485E+01  3.45991133130E+01
  3.59168594928E+01  3.72847935192E+01  3.87048268529E+01  4.01789437547E+01
  4.17092040582E+01  4.32977460480E+01  4.49467894477E+01  4.66586385217E+01
  4.84356852947E+01  5.02804128946E+01  5.21953990218E+01  5.41833195513E+01
  5.62469522722E+01  5.83891807682E+01  6.06129984481E+01  6.29215127278E+01
  6.53179493726E+01  6.78056570047E+01  7.03881117824E+01  7.30689222576E+01
  7.58518344175E+01  7.87407369198E+01  8.17396665261E+01  8.48528137424E+01
  </PP_R>
  <PP_RAB>
  1.05723079216E-06  1.09749661703E-06  1.13929601117E-06  1.18268738230E-06
  1.22773136263E-06  1.27449089367E-06  1.32303131409E-06  1.37342045106E-06
  1.42572871504E-06  1.48002919813E-06  1.53639777625E-06  1.59491321513E-06
  1.65565728036E-06  1.71871485171E-06  1.78417404164E-06  1.85212631851E-06
  1.92266663434E-06  1.99589355751E-06  2.07190941048E-06  2.15082041279E-06
  2.23273682945E-06  2.31777312505E-06  2.40604812370E-06  2.49768517505E-06
  2.59281232666E-06  2.69156250292E-06  2.79407369081E-06  2.90048913270E-06
  3.01095752648E-06  3.12563323339E-06  3.24467649370E-06  3.36825365059E-06
  3.49653738261E-06  3.62970694498E-06  3.76794842004E-06  3.91145497730E-06
  4.06042714335E-06  4.21507308204E-06  4.37560888540E-06  4.54225887554E-06
  4.71525591817E-06  4.89484174791E-06  5.08126730614E-06  5.27479309162E-06
  5.47568952450E-06  5.68423732418E-06  5.90072790157E-06  6.12546376632E-06
  6.35875894947E-06  6.60093944229E-06  6.85234365182E-06  7.11332287367E-06
  7.38424178299E-06  7.66547894394E-06  7.95742733877E-06  8.26049491686E-06
  8.57510516485E-06  8.90169769829E-06  9.24072887602E-06  9.59267243781E-06
  9.95802016635E-06  1.03372825744E-05  1.07309896182E-05  1.11396914380E-05
  1.15639591267E-05  1.20043855279E-05  1.24615860644E-05  1.29361995980E-05
  1.34288893224E-05  1.39403436895E-05  1.44712773720E-05  1.50224322614E-05
  1.55945785052E-05  1.61885155829E-05  1.68050734227E-05  1.74451135620E-05
  1.81095303504E-05  1.87992522002E-05  1.95152428831E-05  2.02585028772E-05
  2.10300707648E-05  2.18310246841E-05  2.26624838350E-05  2.35256100436E-05
  2.44216093856E-05  2.53517338711E-05  2.63172831948E-05  2.73196065513E-05
  2.83601045213E-05  2.94402310278E-05  3.05614953682E-05  3.17254643232E-05
  3.29337643462E-05  3.41880838358E-05  3.54901754952E-05  3.68418587812E-05
  3.82450224468E-05  3.97016271802E-05  4.12137083446E-05  4.27833788223E-05
  4.44128319672E-05  4.61043446695E-05  4.78602805372E-05  4.96830931991E-05
  5.15753297333E-05  5.35396342260E-05  5.55787514665E-05  5.76955307827E-05
  5.98929300221E-05  6.21740196851E-05  6.45419872159E-05  6.70001414557E-05
  6.95519172670E-05  7.22008803327E-05  7.49507321387E-05  7.78053151464E-05
  8.07686181614E-05  8.38447819076E-05  8.70381048130E-05  9.03530490160E-05
  9.37942466008E-05  9.73665060694E-05  1.01074819061E-04  1.04924367328E-04
  1.08920529974E-04  1.13068890973E-04  1.17375246971E-04  1.21845615384E-04
  1.26486242811E-04  1.31303613758E-04  1.36304459700E-04  1.41495768489E-04
  1.46884794118E-04  1.52479066854E-04  1.58286403765E-04  1.64314919640E-04
  1.70573038329E-04  1.77069504512E-04  1.83813395924E-04  1.90814136032E-04
  1.98081507207E-04  2.05625664395E-04  2.13457149302E-04  2.21586905128E-04
  2.30026291857E-04  2.38787102129E-04  2.47881577723E-04  2.57322426658E-04
  2.67122840952E-04  2.77296515058E-04  2.87857664994E-04  2.98821048215E-04
  3.10201984228E-04  3.22016376000E-04  3.34280732183E-04  3.47012190177E-04
  3.60228540082E-04  3.73948249550E-04  3.88190489598E-04  4.02975161392E-04
  4.18322924054E-04  4.34255223534E-04  4.50794322576E-04  4.67963331823E-04
  4.85786242115E-04  5.04287958009E-04  5.23494332581E-04  5.43432203550E-04
  5.64129430779E-04  5.85614935207E-04  6.07918739258E-04  6.31072008794E-04
  6.55107096664E-04  6.80057587913E-04  7.05958346709E-04  7.32845565061E-04
  7.60756813391E-04  7.89731093034E-04  8.19808890735E-04  8.51032235221E-04
  8.83444755930E-04  9.17091743978E-04  9.52020215444E-04  9.88278977065E-04
  1.02591869444E-03  1.06499196282E-03  1.10555338062E-03  1.14765962567E-03
  1.19136953447E-03  1.23674418435E-03  1.28384697885E-03  1.33274373630E-03
  1.38350278180E-03  1.43619504270E-03  1.49089414766E-03  1.54767652962E-03
  1.60662153251E-03  1.66781152220E-03  1.73133200152E-03  1.79727172981E-03
  1.86572284688E-03  1.93678100180E-03  2.01054548654E-03  2.08711937473E-03
  2.16660966564E-03  2.24912743377E-03  2.33478798399E-03  2.42371101270E-03
  2.51602077506E-03  2.61184625863E-03  2.71132136362E-03  2.81458508997E-03
  2.92178173157E-03  3.03306107795E-03  3.14857862351E-03  3.26849578483E-03
  3.39298012623E-03  3.52220559391E-03  3.65635275901E-03  3.79560906989E-03
  3.94016911414E-03  4.09023489041E-03  4.24601609071E-03  4.40773039338E-03
  4.57560376732E-03  4.74987078769E-03  4.93077496370E-03  5.11856907891E-03
  5.31351554439E-03  5.51588676548E-03  5.72596552233E-03  5.94404536513E-03
  6.17043102424E-03  6.40543883603E-03  6.64939718488E-03  6.90264696208E-03
  7.16554204214E-03  7.43844977726E-03  7.72175151070E-03  8.01584310958E-03
  8.32113551807E-03  8.63805533161E-03  8.96704539302E-03  9.30856541127E-03
  9.66309260388E-03  1.00311223637E-02  1.04131689513E-02  1.08097662132E-02
  1.12214683282E-02  1.16488505818E-02  1.20925101697E-02  1.25530670324E-02
  1.30311647217E-02  1.35274712996E-02  1.40426802723E-02  1.45775115588E-02
  1.51327124968E-02  1.57090588876E-02  1.63073560794E-02  1.69284400934E-02
  1.75731787911E-02  1.82424730880E-02  1.89372582116E-02  1.96585050088E-02
  2.04072213022E-02  2.11844532985E-02  2.19912870503E-02  2.28288499738E-02
  2.36983124242E-02  2.46008893307E-02  2.55378418948E-02  2.65104793520E-02
  2.75201608017E-02  2.85682971061E-02  2.96563528615E-02  3.07858484453E-02
  3.19583621398E-02  3.31755323383E-02  3.44390598341E-02  3.57507101969E-02
  3.71123162403E-02  3.85257805827E-02  3.99930783057E-02  4.15162597143E-02
  4.30974532016E-02  4.47388682228E-02  4.64427983829E-02  4.82116246413E-02
  5.00478186389E-02  5.19539461520E-02  5.39326706772E-02  5.59867571535E-02
  5.81190758256E-02  6.03326062547E-02  6.26304414820E-02  6.50157923507E-02
  6.74919919925E-02  7.00625004852E-02  7.27309096875E-02  7.55009482582E-02
  7.83764868661E-02  8.13615435991E-02  8.44602895780E-02  8.76770547859E-02
  9.10163341180E-02  9.44827936625E-02  9.80812772211E-02  1.01816813077E-01
  1.05694621021E-01  1.09720119646E-01  1.13898933918E-01  1.18236903035E-01
  1.22740088590E-01  1.27414783036E-01  1.32267518482E-01  1.37305075821E-01
  1.42534494202E-01  1.47963080869E-01  1.53598421370E-01  1.59448390158E-01
  1.65521161592E-01  1.71825221364E-01  1.78369378348E-01  1.85162776917E-01
  1.92214909719E-01  1.99535630938E-01  2.07135170065E-01  2.15024146195E-01
  2.23213582861E-01  2.31714923442E-01  2.40540047150E-01  2.49701285628E-01
  2.59211440187E-01  2.69083799688E-01  2.79332159115E-01  2.89970838847E-01
  3.01014704673E-01  3.12479188561E-01  3.24380310224E-01  3.36734699503E-01
  3.49559619605E-01  3.62872991227E-01  3.76693417594E-01  3.91040210458E-01
  4.05933417078E-01  4.21393848238E-01  4.37443107323E-01  4.54103620508E-01
  4.71398668092E-01  4.89352417033E-01  5.07989954713E-01  5.27337323997E-01
  5.47421559620E-01  5.68270725966E-01  5.89913956283E-01  6.12381493391E-01
  6.35704731942E-01  6.59916262289E-01  6.85049916024E-01  7.11140813256E-01
  7.38225411680E-01  7.66341557526E-01  7.95528538436E-01  8.25827138372E-01
  8.57279694593E-01  8.89930156826E-01  9.23824148668E-01  9.59009031345E-01
  9.95533969887E-01  1.03345000183E+00  1.07281010853E+00  1.11366928921E+00
  1.15608463778E+00  1.20011542265E+00  1.24582316952E+00  1.29327174739E+00
  1.34252745776E+00  1.39365912731E+00  1.44673820406E+00  1.50183885719E+00
  1.55903808073E+00  1.61841580109E+00  1.68005498877E+00  1.74404177430E+00
  1.81046556860E+00  1.87941918787E+00  1.95099898335E+00  2.02530497593E+00
  2.10244099588E+00  2.18251482799E+00  2.26563836213E+00  2.35192774964E+00
  2.44150356562E+00  2.53449097739E+00  2.63101991941E+00  2.73122527485E+00
  2.83524706406E+00  2.94323064022E+00  3.05532689243E+00  3.17169245659E+00
  </PP_RAB>
</PP_MESH>
<PP_LOCAL>
 -1.14108372368E+01 -1.14108372356E+01 -1.14108372343E+01 -1.14108372329E+01
 -1.14108372313E+01 -1.14108372297E+01 -1.14108372279E+01 -1.14108372260E+01
 -1.14108372239E+01 -1.14108372217E+01 -1.14108372193E+01 -1.14108372167E+01
 -1.14108372139E+01 -1.14108372109E+01 -1.14108372076E+01 -1.14108372042E+01
 -1.14108372004E+01 -1.14108371963E+01 -1.14108371920E+01 -1.14108371873E+01
 -1.14108371822E+01 -1.14108371767E+01 -1.14108371708E+01 -1.14108371645E+01
 -1.14108371576E+01 -1.14108371503E+01 -1.14108371423E+01 -1.14108371338E+01
 -1.14108371245E+01 -1.14108371146E+01 -1.14108371039E+01 -1.14108370923E+01
 -1.14108370799E+01 -1.14108370665E+01 -1.14108370520E+01 -1.14108370364E+01
 -1.14108370197E+01 -1.14108370016E+01 -1.14108369821E+01 -1.14108369611E+01
 -1.14108369385E+01 -1.14108369141E+01 -1.14108368878E+01 -1.14108368595E+01
 -1.14108368290E+01 -1.14108367961E+01 -1.14108367606E+01 -1.14108367225E+01
 -1.14108366813E+01 -1.14108366370E+01 -1.14108365892E+01 -1.14108365377E+01
 -1.14108364822E+01 -1.14108364224E+01 -1.14108363579E+01 -1.14108362885E+01
 -1.14108362136E+01 -1.14108361330E+01 -1.14108360461E+01 -1.14108359524E+01
 -1.14108358515E+01 -1.14108357427E+01 -1.14108356255E+01 -1.14108354992E+01
 -1.14108353631E+01 -1.14108352164E+01 -1.14108350584E+01 -1.14108348881E+01
 -1.14108347045E+01 -1.14108345067E+01 -1.14108342936E+01 -1.14108340639E+01
 -1.14108338164E+01 -1.14108335496E+01 -1.14108332622E+01 -1.14108329525E+01
 -1.14108326187E+01 -1.14108322590E+01 -1.14108318713E+01 -1.14108314536E+01
 -1.14108310035E+01 -1.14108305184E+01 -1.14108299957E+01 -1.14108294324E+01
 -1.14108288254E+01 -1.14108281713E+01 -1.14108274663E+01 -1.14108267067E+01
 -1.14108258881E+01 -1.14108250060E+01 -1.14108240554E+01 -1.14108230310E+01
 -1.14108219271E+01 -1.14108207375E+01 -1.14108194556E+01 -1.14108180742E+01
 -1.14108165855E+01 -1.14108149813E+01 -1.14108132526E+01 -1.14108113897E+01
 -1.14108093822E+01 -1.14108072189E+01 -1.14108048877E+01 -1.14108023756E+01
 -1.14107996684E+01 -1.14107967512E+01 -1.14107936075E+01 -1.14107902198E+01
 -1.14107865692E+01 -1.14107826353E+01 -1.14107783960E+01 -1.14107738278E+01
 -1.14107689049E+01 -1.14107636001E+01 -1.14107578835E+01 -1.14107517232E+01
 -1.14107450849E+01 -1.14107379314E+01 -1.14107302228E+01 -1.14107219160E+01
 -1.14107129645E+01 -1.14107033184E+01 -1.14106929238E+01 -1.14106817227E+01
 -1.14106696524E+01 -1.14106566455E+01 -1.14106426295E+01 -1.14106275260E+01
 -1.14106112507E+01 -1.14105937128E+01 -1.14105748144E+01 -1.14105544499E+01
 -1.14105325058E+01 -1.14105088596E+01 -1.14104833793E+01 -1.14104559230E+01
 -1.14104263373E+01 -1.14103944574E+01 -1.14103601056E+01 -1.14103230904E+01
 -1.14102832056E+01 -1.14102402289E+01 -1.14101939211E+01 -1.14101440245E+01
 -1.14100902612E+01 -1.14100323322E+01 -1.14099699154E+01 -1.14099026639E+01
 -1.14098302040E+01 -1.14097521333E+01 -1.14096680185E+01 -1.14095773930E+01
 -1.14094797545E+01 -1.14093745620E+01 -1.14092612332E+01 -1.14091391412E+01
 -1.14090076113E+01 -1.14088659169E+01 -1.14087132766E+01 -1.14085488491E+01
 -1.14083717293E+01 -1.14081809433E+01 -1.14079754436E+01 -1.14077541034E+01
 -1.14075157109E+01 -1.14072589632E+01 -1.14069824593E+01 -1.14066846936E+01
 -1.14063640477E+01 -1.14060187831E+01 -1.14056470321E+01 -1.14052467888E+01
 -1.14048158998E+01 -1.14043520537E+01 -1.14038527703E+01 -1.14033153893E+01
 -1.14027370582E+01 -1.14021147198E+01 -1.14014450985E+01 -1.14007246866E+01
 -1.13999497298E+01 -1.13991162119E+01 -1.13982198388E+01 -1.13972560228E+01
 -1.13962198652E+01 -1.13951061394E+01 -1.13939092734E+01 -1.13926233321E+01
 -1.13912419997E+01 -1.13897585620E+01 -1.13881658892E+01 -1.13864564196E+01
 -1.13846221436E+01 -1.13826545898E+01 -1.13805448122E+01 -1.13782833798E+01
 -1.13758603691E+01 -1.13732653602E+01 -1.13704874366E+01 -1.13675151904E+01
 -1.13643367336E+01 -1.13609397162E+01 -1.13573113528E+01 -1.13534384590E+01
 -1.13493074987E+01 -1.13449046448E+01 -1.13402158541E+01 -1.13352269594E+01
 -1.13299237808E+01 -1.13242922587E+01 -1.13183186109E+01 -1.13119895175E+01
 -1.13052923362E+01 -1.12982153522E+01 -1.12907480669E+01 -1.12828815281E+01
 -1.12746087092E+01 -1.12659249404E+01 -1.12568283984E+01 -1.12473206623E+01
 -1.12374073410E+01 -1.12270987815E+01 -1.12164108665E+01 -1.12053659118E+01
 -1.11939936737E+01 -1.11823324805E+01 -1.11704304995E+01 -1.11583471580E+01
 -1.11461547312E+01 -1.11339401195E+01 -1.11218068307E+01 -1.11098771918E+01
 -1.10982948091E+01 -1.10872273011E+01 -1.10768693243E+01 -1.10674459133E+01
 -1.10592161519E+01 -1.10524771877E+01 -1.10475685951E+01 -1.10448770798E+01
 -1.10448415028E+01 -1.10479581803E+01 -1.10547863870E+01 -1.10659539512E+01
 -1.10821627817E+01 -1.11041941007E+01 -1.11329130742E+01 -1.11692724298E+01
 -1.12143145183E+01 -1.12691711176E+01 -1.13350600825E+01 -1.14132777059E+01
 -1.15051853839E+01 -1.16121888576E+01 -1.17357079485E+01 -1.18771343240E+01
 -1.20377744520E+01 -1.22187745616E+01 -1.24210242037E+01 -1.26450349860E+01
 -1.28907914035E+01 -1.31575715961E+01 -1.34437376102E+01 -1.37464976699E+01
 -1.40616474745E+01 -1.43833040603E+01 -1.47036546894E+01 -1.50127547631E+01
 -1.52984227132E+01 -1.55462953504E+01 -1.57401222481E+01 -1.58623889004E+01
 -1.58953600825E+01 -1.58226193288E+01 -1.56311379840E+01 -1.53138268351E+01
 -1.48723935559E+01 -1.43201381437E+01 -1.36840487892E+01 -1.30051737283E+01
 -1.23356483526E+01 -1.17297567156E+01 -1.12246710629E+01 -1.08041407348E+01
 -1.04077287529E+01 -1.00258686359E+01 -9.65802360145E+00 -9.30367755372E+00
 -8.96233400511E+00 -8.63351513224E+00 -8.31676093607E+00 -8.01162848270E+00
 -7.71769120758E+00 -7.43453826942E+00 -7.16177394439E+00 -6.89901705337E+00
 -6.64590041728E+00 -6.40207033689E+00 -6.16718609442E+00 -5.94091947514E+00
 -5.72295430739E+00 -5.51298602018E+00 -5.31072121717E+00 -5.11587726655E+00
 -4.92818190602E+00 -4.74737286229E+00 -4.57319748459E+00 -4.40541239164E+00
 -4.24378313152E+00 -4.08808385407E+00 -3.93809699533E+00 -3.79361297351E+00
 -3.65442989610E+00 -3.52035327784E+00 -3.39119576885E+00 -3.26677689295E+00
 -3.14692279537E+00 -3.03146599990E+00 -2.92024517483E+00 -2.81310490749E+00
 -2.70989548715E+00 -2.61047269577E+00 -2.51469760650E+00 -2.42243638956E+00
 -2.33356012521E+00 -2.24794462362E+00 -2.16547025136E+00 -2.08602176416E+00
 -2.00948814598E+00 -1.93576245378E+00 -1.86474166815E+00 -1.79632654935E+00
 -1.73042149859E+00 -1.66693442451E+00 -1.60577661448E+00 -1.54686261061E+00
 -1.49011009036E+00 -1.43543975151E+00 -1.38277520134E+00 -1.33204284988E+00
 -1.28317180710E+00 -1.23609378384E+00 -1.19074299637E+00 -1.14705607450E+00
 -1.10497197301E+00 -1.06443188636E+00 -1.02537916650E+00 -9.87759243755E-01
 -9.51519550521E-01 -9.16609447846E-01 -8.82980154660E-01 -8.50584679610E-01
 -8.19377755399E-01 -7.89315775533E-01 -7.60356733387E-01 -7.32460163508E-01
 -7.05587085074E-01 -6.79699947419E-01 -6.54762577568E-01 -6.30740129687E-01
 -6.07599036394E-01 -5.85306961855E-01 -5.63832756598E-01 -5.43146413986E-01
 -5.23219028291E-01 -5.04022754301E-01 -4.85530768410E-01 -4.67717231140E-01
 -4.50557251029E-01 -4.34026849856E-01 -4.18102929130E-01 -4.02763237816E-01
 -3.87986341242E-01 -3.73751591151E-01 -3.60039096841E-01 -3.46829697381E-01
 -3.34104934826E-01 -3.21847028436E-01 -3.10038849821E-01 -2.98663899013E-01
 -2.87706281406E-01 -2.77150685551E-01 -2.66982361754E-01 -2.57187101472E-01
 -2.47751217454E-01 -2.38661524621E-01 -2.29905321636E-01 -2.21470373158E-01
 -2.13344892750E-01 -2.05517526400E-01 -1.97977336664E-01 -1.90713787380E-01
 -1.83716728943E-01 -1.76976384126E-01 -1.70483334417E-01 -1.64228506857E-01
 -1.58203161363E-01 -1.52398878515E-01 -1.46807547792E-01 -1.41421356237E-01
</PP_LOCAL>
<PP_NONLOCAL>
  <PP_BETA>
    1    1             Beta    L
   400
 -3.70742580600E-08 -3.99520659364E-08 -4.30532573296E-08 -4.63951718948E-08
 -4.99964952392E-08 -5.38773633996E-08 -5.80594754284E-08 -6.25662147192E-08
 -6.74227797499E-08 -7.26563249754E-08 -7.82961126549E-08 -8.43736764665E-08
 -9.09229978206E-08 -9.79806958600E-08 -1.05586232208E-07 -1.13782131609E-07
 -1.22614219698E-07 -1.32131879224E-07 -1.42388326162E-07 -1.53440907262E-07
 -1.65351420689E-07 -1.78186461551E-07 -1.92017794260E-07 -2.06922753779E-07
 -2.22984678028E-07 -2.40293373849E-07 -2.58945619144E-07 -2.79045703984E-07
 -3.00706013728E-07 -3.24047657401E-07 -3.49201144847E-07 -3.76307116451E-07
 -4.05517129497E-07 -4.36994505565E-07 -4.70915243717E-07 -5.07469004549E-07
 -5.46860170642E-07 -5.89308989323E-07 -6.35052804130E-07 -6.84347381866E-07
 -7.37468342666E-07 -7.94712701065E-07 -8.56400526692E-07 -9.22876733867E-07
 -9.94513010120E-07 -1.07170989439E-06 -1.15489901657E-06 -1.24454551085E-06
 -1.34115061642E-06 -1.44525448004E-06 -1.55743917615E-06 -1.67833196142E-06
 -1.80860878189E-06 -1.94899805240E-06 -2.10028472934E-06 -2.26331469956E-06
 -2.43899950995E-06 -2.62832146417E-06 -2.83233911494E-06 -3.05219318272E-06
 -3.28911293377E-06 -3.54442305331E-06 -3.81955105220E-06 -4.11603524849E-06
 -4.43553336858E-06 -4.77983181603E-06 -5.15085565973E-06 -5.55067939750E-06
 -5.98153855512E-06 -6.44584218569E-06 -6.94618633926E-06 -7.48536857795E-06
 -8.06640361782E-06 -8.69254018481E-06 -9.36727917914E-06 -1.00943932496E-05
 -1.08779478874E-05 -1.17223241569E-05 -1.26322431915E-05 -1.36127925900E-05
 -1.46694548626E-05 -1.58081380848E-05 -1.70352089301E-05 -1.83575282678E-05
 -1.97824895225E-05 -2.13180600125E-05 -2.29728254959E-05 -2.47560381750E-05
 -2.66776684262E-05 -2.87484605455E-05 -3.09799928212E-05 -3.33847422686E-05
 -3.59761543901E-05 -3.87687183495E-05 -4.17780479814E-05 -4.50209690883E-05
 -4.85156135130E-05 -5.22815205139E-05 -5.63397460068E-05 -6.07129802873E-05
 -6.54256748895E-05 -7.05041792904E-05 -7.59768882253E-05 -8.18744004363E-05
 -8.82296897421E-05 -9.50782893842E-05 -1.02458490681E-04 -1.10411557100E-04
 -1.18981954941E-04 -1.28217601928E-04 -1.38170135085E-04 -1.48895199410E-04
 -1.60452758945E-04 -1.72907431985E-04 -1.86328852309E-04 -2.00792058427E-04
 -2.16377913048E-04 -2.33173555084E-04 -2.51272886737E-04 -2.70777098369E-04
 -2.91795234109E-04 -3.14444801330E-04 -3.38852427425E-04 -3.65154567522E-04
 -3.93498267116E-04 -4.24041983846E-04 -4.56956473037E-04 -4.92425741905E-04
 -5.30648077797E-04 -5.71837156159E-04 -6.16223234437E-04 -6.64054438561E-04
 -7.15598149180E-04 -7.71142495379E-04 -8.30997964195E-04 -8.95499134912E-04
 -9.65006547770E-04 -1.03990871751E-03 -1.12062430296E-03 -1.20760444473E-03
 -1.30133528397E-03 -1.40234067632E-03 -1.51118511597E-03 -1.62847688615E-03
 -1.75487145360E-03 -1.89107512569E-03 -2.03784899063E-03 -2.19601316248E-03
 -2.36645135448E-03 -2.55011580616E-03 -2.74803259110E-03 -2.96130733511E-03
 -3.19113137600E-03 -3.43878839905E-03 -3.70566158470E-03 -3.99324130778E-03
 -4.30313343040E-03 -4.63706823419E-03 -4.99691004061E-03 -5.38466757196E-03
 -5.80250510962E-03 -6.25275451026E-03 -6.73792814525E-03 -7.26073283344E-03
 -7.82408484268E-03 -8.43112604074E-03 -9.08524128278E-03 -9.79007712822E-03
 -1.05495619871E-02 -1.13679278033E-02 -1.22497333886E-02 -1.31998895320E-02
 -1.42236860154E-02 -1.53268206755E-02 -1.65154306655E-02 -1.77961260748E-02
 -1.91760260813E-02 -2.06627978183E-02 -2.22646981532E-02 -2.39906185861E-02
 -2.58501334901E-02 -2.78535519306E-02 -3.00119733119E-02 -3.23373471188E-02
 -3.48425370317E-02 -3.75413897141E-02 -4.04488085813E-02 -4.35808328820E-02
 -4.69547224338E-02 -5.05890483717E-02 -5.45037902849E-02 -5.87204401259E-02
 -6.32621132913E-02 -6.81536672820E-02 -7.34218283563E-02 -7.90953265918E-02
 -8.52050397707E-02 -9.17841464941E-02 -9.88682889126E-02 -1.06495745438E-01
 -1.14707613757E-01 -1.23548004428E-01 -1.33064245245E-01 -1.43307096504E-01
 -1.54330977132E-01 -1.66194201548E-01 -1.78959226890E-01 -1.92692910030E-01
 -2.07466773508E-01 -2.23357279149E-01 -2.40446107709E-01 -2.58820442331E-01
 -2.78573253009E-01 -2.99803578404E-01 -3.22616800486E-01 -3.47124906314E-01
 -3.73446729925E-01 -4.01708165717E-01 -4.32042342749E-01 -4.64589747168E-01
 -4.99498277233E-01 -5.36923212256E-01 -5.77027073053E-01 -6.19979347123E-01
 -6.65956046703E-01 -7.15139061960E-01 -7.67715264772E-01 -8.23875310855E-01
 -8.83812079140E-01 -9.47718677500E-01 -1.01578593299E+00 -1.08819927289E+00
 -1.16513489002E+00 -1.24675507296E+00 -1.33320256806E+00 -1.42459382839E+00
 -1.52101099395E+00 -1.62249244041E+00 -1.72902173247E+00 -1.84051482437E+00
 -1.95680536905E+00 -2.07762803248E+00 -2.20259976660E+00 -2.33119907992E+00
 -2.46274346677E+00 -2.59636532255E+00 -2.73098689207E+00 -2.86529508002E+00
 -2.99771730222E+00 -3.12639997670E+00 -3.24919174180E+00 -3.36363402962E+00
 -3.46696219069E+00 -3.55612091338E+00 -3.62779813957E+00 -3.67848195043E+00
 -3.70454485909E+00 -3.70235945032E+00 -3.66844818983E+00 -3.59966832725E+00
 -3.49343001664E+00 -3.34794203096E+00 -3.16247483573E+00 -2.93762557199E+00
 -2.67556415194E+00 -2.38023487945E+00 -2.05748461667E+00 -1.71508740331E+00
 -1.36263729431E+00 -1.01128627506E+00 -6.73312021420E-01 -3.61509788272E-01
 -8.84120491593E-02  1.34652964743E-01  2.98646978415E-01  3.98026928771E-01
  4.32023784281E-01  4.05892185537E-01  3.31900568759E-01  2.29586450625E-01
  1.24392121126E-01  4.31946745868E-02  4.45683254882E-03  0.00000000000E+00
  0.00000000000E+00  0.00000000000E+00  0.00000000000E+00  0.00000000000E+00