<PP_INFO>
Generated using APE Version-2.x
Author: Unknown Generation date: 2018/02/14
Pseudopotential for: H
Exchange-correlation: Perdew-Wang LDA
    0        The Pseudo was generated with a Non-Relativistic Calculation
State   n   l    occ     rc         ev
1s      1   0    1.00    1.25     -0.233457
2p      2   1    0.00    1.25     -0.233457
3d      3   2    0.00    1.25     -0.233457
</PP_INFO>
<PP_HEADER>
   0                   Version Number
  H                    Element
   NC                  Norm - Conserving pseudopotential
    F                  Nonlinear Core Correction
 SLA  PW   NOGX NOGC        Exchange-Correlation functional
    1.00000000000      Z valence
    0.00000000000      Total energy
  0.0000000  0.0000000 Suggested cutoff for wfc and rho
    2                  Max angular momentum component
  200                  Number of points in mesh
    3    2             Number of Wavefunctions, Number of Projectors
 Wavefunctions         nl  l   occ
                       1s  0  1.00
                       2p  1  0.00
                       3d  2  0.00
</PP_HEADER>
<PP_MESH>
  <PP_R>
  9.99999974738E-06  1.07782520927E-05  1.16170721108E-05  1.25211734952E-05
  1.34956367836E-05  1.45459379080E-05  1.56779789657E-05  1.68981213865E-05
  1.82132216797E-05  1.96306699642E-05  2.11584314967E-05  2.28050914318E-05
  2.45799030658E-05  2.64928398349E-05  2.85546513605E-05  3.07769238556E-05
  3.31721452333E-05  3.57537752811E-05  3.85363212980E-05  4.15354196166E-05
  4.47679234712E-05  4.82519977027E-05  5.20072208353E-05  5.60546950962E-05
  6.04171649987E-05  6.51191451531E-05  7.01870580249E-05  7.56493824146E-05
  8.15368134917E-05  8.78824352847E-05  9.47219065945E-05  1.02093661376E-04
  1.10039124718E-04  1.18602945623E-04  1.27833247915E-04  1.37781900665E-04
  1.48504809669E-04  1.60062231603E-04  1.72519112631E-04  1.85945453371E-04
  2.00416702255E-04  2.16014179506E-04  2.32825534112E-04  2.50945236366E-04
  2.70475108733E-04  2.91524898037E-04  3.14212892170E-04  3.38666584813E-04
  3.65023391869E-04  3.93431423668E-04  4.24050317259E-04  4.57052133485E-04
  4.92622323864E-04  5.30960772722E-04  5.72282920428E-04  6.16820974053E-04
  6.64825212233E-04  7.16565391603E-04  7.72332262668E-04  8.32439203663E-04
  8.97223981556E-04  9.67050650109E-04  1.04231159566E-03  1.12342974209E-03
  1.21086092745E-03  1.30509646549E-03  1.40666590657E-03  1.51614001342E-03
  1.63413396852E-03  1.76131083109E-03  1.89838526306E-03  2.04612754511E-03
  2.20536790521E-03  2.37700118399E-03  2.56199186328E-03  2.76137948594E-03
  2.97628449748E-03  3.20791454238E-03  3.45757125029E-03  3.72665755054E-03
  4.01668555575E-03  4.32928505905E-03  4.66621269262E-03  5.02936179896E-03
  5.42077307038E-03  5.84264601657E-03  6.29735132457E-03  6.78744418069E-03
  7.31567862925E-03  7.88502304869E-03  8.49867683222E-03  9.16008836658E-03
  9.87297441002E-03  1.06413409784E-02  1.14695058567E-02  1.23621228624E-02
  1.33242079978E-02  1.43611676363E-02  1.54788289039E-02  1.66834724241E-02
  1.79818676110E-02  1.93813107105E-02  2.08896658001E-02  2.25154089813E-02
  2.42676760100E-02  2.61563136347E-02  2.81919349291E-02  3.03859789322E-02
  3.27507749287E-02  3.52996117330E-02  3.80468123643E-02  4.10078145344E-02
  4.41992573987E-02  4.76390750586E-02  5.13465973414E-02  5.53426584227E-02
  5.96497139027E-02  6.42919669940E-02  6.92955045301E-02  7.46884435581E-02
  8.05010893415E-02  8.67661056576E-02  9.35186983501E-02  1.00796813166E-01
  1.08641348988E-01  1.17096387667E-01  1.26209441729E-01  1.36031721380E-01
  1.46618422267E-01  1.58029035655E-01  1.70327682727E-01  1.83583474917E-01
  1.97870902269E-01  2.13270252034E-01  2.29868059836E-01  2.47757595955E-01
  2.67039389453E-01  2.87821793091E-01  3.10221592207E-01  3.34364660986E-01
  3.60386669803E-01  3.88433847610E-01  4.18663803662E-01  4.51246413194E-01
  4.86364772019E-01  5.24216225424E-01  5.65013477142E-01  6.08985784623E-01
  6.56380247333E-01  7.07463195312E-01  7.62521685799E-01  8.21865116329E-01
  8.85826963374E-01  9.54766656292E-01  1.02907159712E+00  1.10915933753E+00
  1.19547992528E+00  1.28851843319E+00  1.38879768499E+00  1.49688119326E+00
  1.61337632613E+00  1.73893772027E+00  1.87427095960E+00  2.02013654029E+00
  2.17735414429E+00  2.34680724550E+00  2.52944807439E+00  2.72630296898E+00
  2.93847814229E+00  3.16716589865E+00  3.41365133373E+00  3.67931955609E+00
  3.96566347068E+00  4.27429216815E+00  4.60693996698E+00  4.96547615943E+00
  5.35191551585E+00  5.76842960657E+00  6.21735900490E+00  6.70122643983E+00
  7.22275097232E+00  7.78486327488E+00  8.39072210033E+00  9.04373203215E+00
  9.74756261634E+00  1.05061689822E+01  1.13238140679E+01  1.22050925758E+01
  1.31549567919E+01  1.41787444153E+01  1.52822085526E+01  1.64715500474E+01
  1.77534523253E+01  1.91351189511E+01  2.06243141088E+01  2.22294062319E+01
  2.39594150290E+01  2.58240621699E+01  2.78338259156E+01  3.00000000000E+01
  </PP_R>
  <PP_RAB>
  7.49453391715E-07  8.07779779167E-07  8.70645431517E-07  9.38403618128E-07
  1.01143510164E-06  1.09015027762E-06  1.17499148079E-06  1.26643547066E-06
  1.36499611067E-06  1.47122725580E-06  1.58572586492E-06  1.70913535537E-06
  1.84214921861E-06  1.98551491720E-06  2.14003808520E-06  2.30658705529E-06
  2.48609773836E-06  2.67957888280E-06  2.88811774306E-06  3.11288618944E-06
  3.35514729331E-06  3.61626242489E-06  3.89769890333E-06  4.20103824227E-06
  4.52798503700E-06  4.88037654334E-06  5.26019300201E-06  5.66956876640E-06
  6.11080429647E-06  6.58637908602E-06  7.09896559603E-06  7.65144427241E-06
  8.24691973244E-06  8.88873821097E-06  9.58050636438E-06  1.03261115379E-05
  1.11297436104E-05  1.19959185390E-05  1.29295037363E-05  1.39357454224E-05
  1.50202981056E-05  1.61892563579E-05  1.74491890626E-05  1.88071763280E-05
  2.02708492736E-05  2.18484329122E-05  2.35487923707E-05  2.53814827061E-05
  2.73568026003E-05  2.94858522324E-05  3.17805956556E-05  3.42539280285E-05
  3.69197480782E-05  3.97930362037E-05  4.28899386571E-05  4.62278582763E-05
  4.98255522793E-05  5.37032376689E-05  5.78827048410E-05  6.23874400342E-05
  6.72427573092E-05  7.24759407994E-05  7.81163980322E-05  8.41958251832E-05
  9.07483851900E-05  9.78108997289E-05  1.05423056132E-04  1.13627630408E-04
  1.22470727616E-04  1.32002040957E-04  1.42275131012E-04  1.53347726730E-04
  1.65282049829E-04  1.78145164445E-04  1.92009353999E-04  2.06952527383E-04
  2.23058656770E-04  2.40418249485E-04  2.59128856609E-04  2.79295621157E-04
  3.01031868926E-04  3.24459745317E-04  3.49710901730E-04  3.76927235361E-04
  4.06261686595E-04  4.37879098433E-04  4.71957142824E-04  5.08687319080E-04
  5.48276029990E-04  5.90945741688E-04  6.36936233790E-04  6.86505946817E-04
  7.39933434483E-04  7.97518929012E-04  8.59586028272E-04  9.26483514210E-04
  9.98587312812E-04  1.07630260659E-03  1.16006611149E-03  1.25034853097E-03
  1.34765720109E-03  1.45253894148E-03  1.56558312812E-03  1.68742500531E-03
  1.81874925542E-03  1.96029384635E-03  2.11285417854E-03  2.27728755466E-03
  2.45451799717E-03  2.64554144078E-03  2.85143132907E-03  3.07334464660E-03
  3.31252842055E-03  3.57032672828E-03  3.84818825027E-03  4.14767441092E-03
  4.47046815286E-03  4.81838339410E-03  5.19337522126E-03  5.59755087606E-03
  6.03318159679E-03  6.50271538137E-03  7.00879074378E-03  7.55425154096E-03
  8.14216295368E-03  8.77582871113E-03  9.45880965601E-03  1.01949437544E-02
  1.09883676632E-02  1.18435399753E-02  1.27652662748E-02  1.37587261415E-02
  1.48295022574E-02  1.59836117776E-02  1.72275401443E-02  1.85682775302E-02
  2.00133581203E-02  2.15709024491E-02  2.32496630336E-02  2.50590735576E-02
  2.70093018836E-02  2.91113071902E-02  3.13769015570E-02  3.38188163411E-02
  3.64507737208E-02  3.92875638061E-02  4.23451277506E-02  4.56406473322E-02
  4.91926415046E-02  5.30210704635E-02  5.71474478115E-02  6.15949614525E-02
  6.63886038944E-02  7.15553126931E-02  7.71241218259E-02  8.31263248464E-02
  8.95956507366E-02  9.65684534440E-02  1.04083916171E-01  1.12184271563E-01
  1.20915039028E-01  1.30325280536E-01  1.40467876315E-01  1.51399822009E-01
  1.63182548962E-01  1.75882269427E-01  1.89570348641E-01  2.04323705856E-01
  2.20225246586E-01  2.37364328483E-01  2.55837263483E-01  2.75747859018E-01
  2.97208001359E-01  3.20338284352E-01  3.45268687090E-01  3.72139304318E-01
  4.01101133685E-01  4.32316924272E-01  4.65962091145E-01  5.02225701086E-01
  5.41311535046E-01  5.83439233279E-01  6.28845529589E-01  6.77785581648E-01
  7.30534404832E-01  7.87388417656E-01  8.48667107473E-01  9.14714825818E-01
  9.85902723462E-01  1.06263083608E+00  1.14533033220E+00  1.23446593617E+00
  1.33053853960E+00  1.43408801611E+00  1.54569625511E+00  1.66599043172E+00
  1.79564653106E+00  1.93539314700E+00  2.08601557638E+00  2.24836023194E+00
  </PP_RAB>
</PP_MESH>
<PP_LOCAL>
 -6.24597661103E+00 -6.24597661103E+00 -6.24597661103E+00 -6.24597661103E+00
 -6.24597661103E+00 -6.24597661103E+00 -6.24597661103E+00 -6.24597661103E+00
 -6.24597661103E+00 -6.24597661102E+00 -6.24597661102E+00 -6.24597661102E+00
 -6.24597661102E+00 -6.24597661102E+00 -6.24597661101E+00 -6.24597661101E+00
 -6.24597661101E+00 -6.24597661100E+00 -6.24597661100E+00 -6.24597661099E+00
 -6.24597661099E+00 -6.24597661098E+00 -6.24597661097E+00 -6.24597661096E+00
 -6.24597661095E+00 -6.24597661094E+00 -6.24597661092E+00 -6.24597661090E+00
 -6.24597661088E+00 -6.24597661086E+00 -6.24597661083E+00 -6.24597661079E+00
 -6.24597661076E+00 -6.24597661071E+00 -6.24597661066E+00 -6.24597661060E+00
 -6.24597661053E+00 -6.24597661045E+00 -6.24597661035E+00 -6.24597661024E+00
 -6.24597661011E+00 -6.24597660997E+00 -6.24597660979E+00 -6.24597660959E+00
 -6.24597660936E+00 -6.24597660909E+00 -6.24597660877E+00 -6.24597660841E+00
 -6.24597660798E+00 -6.24597660749E+00 -6.24597660692E+00 -6.24597660625E+00
 -6.24597660548E+00 -6.24597660458E+00 -6.24597660353E+00 -6.24597660232E+00
 -6.24597660091E+00 -6.24597659927E+00 -6.24597659737E+00 -6.24597659516E+00
 -6.24597659259E+00 -6.24597658961E+00 -6.24597658614E+00 -6.24597658210E+00
 -6.24597657742E+00 -6.24597657197E+00 -6.24597656563E+00 -6.24597655827E+00
 -6.24597654971E+00 -6.24597653975E+00 -6.24597652817E+00 -6.24597651470E+00
 -6.24597649902E+00 -6.24597648077E+00 -6.24597645953E+00 -6.24597643479E+00
 -6.24597640596E+00 -6.24597637236E+00 -6.24597633316E+00 -6.24597628742E+00
 -6.24597623401E+00 -6.24597617157E+00 -6.24597609853E+00 -6.24597601298E+00
 -6.24597591266E+00 -6.24597579486E+00 -6.24597565631E+00 -6.24597549306E+00
 -6.24597530031E+00 -6.24597507222E+00 -6.24597480159E+00 -6.24597447959E+00
 -6.24597409524E+00 -6.24597363487E+00 -6.24597308135E+00 -6.24597241306E+00
 -6.24597160263E+00 -6.24597061516E+00 -6.24596940596E+00 -6.24596791750E+00
 -6.24596607539E+00 -6.24596378297E+00 -6.24596091420E+00 -6.24595730408E+00
 -6.24595273589E+00 -6.24594692407E+00 -6.24593949134E+00 -6.24592993804E+00
 -6.24591760094E+00 -6.24590159808E+00 -6.24588075465E+00 -6.24585350356E+00
 -6.24581775195E+00 -6.24577070189E+00 -6.24570860992E+00 -6.24562646418E+00
 -6.24551755145E+00 -6.24537287668E+00 -6.24518038542E+00 -6.24492392299E+00
 -6.24458184290E+00 -6.24412514867E+00 -6.24351501665E+00 -6.24269949967E+00
 -6.24160915065E+00 -6.24015122818E+00 -6.23820204908E+00 -6.23559693488E+00
 -6.23211705674E+00 -6.22747231947E+00 -6.22127924535E+00 -6.21303263892E+00
 -6.20206966573E+00 -6.18752491677E+00 -6.16827515196E+00 -6.14287286999E+00
 -6.10946887346E+00 -6.06572592609E+00 -6.00872891047E+00 -5.93490220424E+00
 -5.83995301571E+00 -5.71887082793E+00 -5.56602818039E+00 -5.37544601442E+00
 -5.14130479712E+00 -4.85879383516E+00 -4.52538283086E+00 -4.14255107048E+00
 -3.71789119439E+00 -3.26727988784E+00 -2.81643821157E+00 -2.40065466022E+00
 -2.06070550024E+00 -1.83224049922E+00 -1.72611074178E+00 -1.70235230841E+00
 -1.66304344440E+00 -1.55217058969E+00 -1.44009483733E+00 -1.33611159652E+00
 -1.23963655741E+00 -1.15012757923E+00 -1.06708167298E+00 -9.90032166616E-01
 -9.18546084998E-01 -8.52221716147E-01 -7.90686354058E-01 -7.33594204265E-01
 -6.80624440691E-01 -6.31479402796E-01 -5.85882922893E-01 -5.43578774246E-01
 -5.04329231221E-01 -4.67913733394E-01 -4.34127646123E-01 -4.02781110606E-01
 -3.73697976979E-01 -3.46714814443E-01 -3.21679992867E-01 -2.98452830706E-01
 -2.76902804450E-01 -2.56908815148E-01 -2.38358507897E-01 -2.21147640476E-01
 -2.05179497554E-01 -1.90364347212E-01 -1.76618936695E-01 -1.63866024578E-01
 -1.52033946720E-01 -1.41056213542E-01 -1.30871136401E-01 -1.21421480932E-01
 -1.12654145422E-01 -1.04519862412E-01 -9.69729218362E-02 -8.99709141637E-02
 -8.34744920766E-02 -7.74471493617E-02 -7.18550157663E-02 -6.66666666667E-02
</PP_LOCAL>
<PP_NONLOCAL>
  <PP_BETA>
    1    1             Beta    L
   200
  2.23899516002E-09  2.60105688866E-09  3.02166662030E-09  3.51029199093E-09
  4.07793162183E-09  4.73736269099E-09  5.50342853859E-09  6.39337278035E-09
  7.42722744956E-09  8.62826390429E-09  1.00235166497E-08  1.16443918662E-08
  1.35273743410E-08  1.57148487153E-08  1.82560535341E-08  2.12081895712E-08
  2.46377073800E-08  2.86218030491E-08  3.32501558340E-08  3.86269467746E-08
  4.48732037394E-08  5.21295256797E-08  6.05592474146E-08  7.03521161862E-08
  8.17285627392E-08  9.49446630654E-08  1.10297902498E-07  1.28133871903E-07
  1.48854046688E-07  1.72924823743E-07  2.00888019710E-07  2.33373066902E-07
  2.71111181391E-07  3.14951822181E-07  3.65881811942E-07  4.25047549707E-07
  4.93780815526E-07  5.73628747913E-07  6.66388668867E-07  7.74148540346E-07
  8.99333962847E-07  1.04476277399E-06  1.21370847609E-06  1.40997392041E-06
  1.63797690671E-06  1.90284962485E-06  2.21055417673E-06  2.56801677910E-06
  2.98328366779E-06  3.46570221279E-06  4.02613132092E-06  4.67718586211E-06
  5.43352062104E-06  6.31216016576E-06  7.33288205839E-06  8.51866203344E-06
  9.89619116464E-06  1.14964766609E-05  1.33555398151E-05  1.55152268154E-05
  1.80241506704E-05  2.09387854483E-05  2.43247374626E-05  2.82582220144E-05
  3.28277789330E-05  3.81362655278E-05  4.43031718109E-05  5.14673101012E-05
  5.97899395487E-05  6.94583959059E-05  8.06903082433E-05  9.37384975185E-05
  1.08896667251E-04  1.26506014382E-04  1.46962909107E-04  1.70727816526E-04
  1.98335660893E-04  2.30407865715E-04  2.67666340654E-04  3.10949729980E-04
  3.61232288212E-04  4.19645807659E-04  4.87505091251E-04  5.66337543739E-04
  6.57917546977E-04  7.64306392544E-04  8.87898669875E-04  1.03147615314E-03
  1.19827039858E-03  1.39203545963E-03  1.61713235427E-03  1.87862718282E-03
  2.18240510057E-03  2.53530270482E-03  2.94526180861E-03  3.42150805190E-03
  3.97475835607E-03  4.61746187190E-03  5.36407981772E-03  6.23141046996E-03
  7.23896657127E-03  8.40941358231E-03  9.76907854700E-03  1.13485408944E-02
  1.31833182944E-02  1.53146627529E-02  1.77904845160E-02  2.06664240877E-02
  2.40070958009E-02  2.78875299618E-02  3.23948446479E-02  3.76301828257E-02
  4.37109555773E-02  5.07734378827E-02  5.89757695341E-02  6.85014202265E-02
  7.95631844079E-02  9.24077775971E-02  1.07321110804E-01  1.24634322106E-01
  1.44730642290E-01  1.68053161482E-01  1.95113540948E-01  2.26501670920E-01
  2.62896199934E-01  3.05075736139E-01  3.53930320456E-01  4.10472457198E-01
  4.75846504555E-01  5.51334496781E-01  6.38355382996E-01  7.38453077809E-01
  8.53266438718E-01  9.84471091130E-01  1.13367868241E+00  1.30227349442E+00
  1.49115943020E+00  1.70038277941E+00  1.92858945978E+00  2.17227311063E+00
  2.42477909294E+00  2.67506045417E+00  2.90625277080E+00  3.09426936647E+00
  3.20684314086E+00  3.20377273244E+00  3.03954856313E+00  2.66993352950E+00
  2.06419743657E+00  1.22407351369E+00  2.08355037852E-01 -8.42734507760E-01
 -1.69827533136E+00 -2.07238125931E+00 -1.75308928469E+00 -8.61644722488E-01
 -9.14701048913E-02  0.00000000000E+00  0.00000000000E+00  0.00000000000E+00
  0.00000000000E+00  0.00000000000E+00  0.00000000000E+00  0.00000000000E+00
  0.00000000000E+00  0.00000000000E+00  0.00000000000E+00  0.00000000000E+00
  0.00000000000E+00  0.00000000000E+00  0.00000000000E+00  0.00000000000E+00
  0.00000000000E+00  0.00000000000E+00  0.00000000000E+00  0.00000000000E+00
  0.00000000000E+00  0.00000000000E+00  0.00000000000E+00  0.00000000000E+00
  0.00000000000E+00  0.00000000000E+00  0.00000000000E+00  0.00000000000E+00
  0.00000000000E+00  0.00000000000E+00  0.00000000000E+00  0.00000000000E+00
  0.00000000000E+00  0.00000000000E+00  0.00000000000E+00  0.00000000000E+00
  0.00000000000E+00  0.00000000000E+00  0.00000000000E+00  0.00000000000E+00
  0.00000000000E+00  0.00000000000E+00  0.00000000000E+00  0.00000000000E+00
  </PP_BETA>
  <PP_BETA>
    2    2             Beta    L
   200
  3.48198073580E-14  4.35984860011E-14  5.45904221136E-14  6.83536163724E-14
  8.55867511239E-14  1.07164658678E-13  1.34182731774E-13  1.68012530703E-13
  2.10371409943E-13  2.63409698883E-13  3.29819862331E-13  4.12973182267E-13
  5.17090899457E-13  6.47458502831E-13  8.10694044950E-13  1.01508410445E-12
  1.27100445047E-12  1.59144676390E-12  1.99267815418E-12  2.49506695177E-12
  3.12411669727E-12  3.91176081715E-12  4.89798370970E-12  6.13285053499E-12
  7.67904875011E-12  9.61507040962E-12  1.20391967793E-11  1.50744875401E-11
  1.88750278576E-11  2.36337504453E-11  2.95922297073E-11  3.70529451533E-11
  4.63946366343E-11  5.80915309003E-11  7.27374155064E-11  9.10757821697E-11
  1.14037569790E-10  1.42788423141E-10  1.78787866301E-10  2.23863394730E-10
  2.80303247246E-10  3.50972567437E-10  4.39458851364E-10  5.50254065176E-10
  6.88982677722E-10  8.62687184148E-10  1.08018561495E-09  1.35251917924E-09
  1.69351276670E-09  2.12047676170E-09  2.65508579703E-09  3.32447905654E-09
  4.16263798325E-09  5.21211133141E-09  6.52617513403E-09  8.17153723553E-09
  1.02317236837E-08  1.28113188896E-08  1.60412748041E-08  2.00855586300E-08
  2.51494765354E-08  3.14900959182E-08  3.94292953005E-08  4.93701043247E-08
  6.18171633375E-08  7.74023411820E-08  9.69168116646E-08  1.21351217034E-07
  1.51945957342E-07  1.90254158575E-07  2.38220516082E-07  2.98280015704E-07
  3.73481544066E-07  4.67642662970E-07  5.85543404797E-07  7.33168926655E-07
  9.18013341212E-07  1.14946014763E-06  1.43925857439E-06  1.80212001443E-06
  2.25646482907E-06  2.82535742999E-06  3.53767710552E-06  4.42958402362E-06
  5.54635482681E-06  6.94468099351E-06  8.69554662867E-06  1.08878317553E-05
  1.36328240000E-05  1.70698676668E-05  2.13734369169E-05  2.67619920371E-05
  3.35090682617E-05  4.19571598895E-05  5.25351042595E-05  6.57798476939E-05
  8.23636977909E-05  1.03128444699E-04  1.29128082315E-04  1.61682296357E-04
  2.02443431966E-04  2.53480336538E-04  3.17383328228E-04  3.97395610185E-04
  4.97577788834E-04  6.23013828565E-04  7.80068868975E-04  9.76711948710E-04
  1.22291995218E-03  1.53118318367E-03  1.91713807854E-03  2.40035893091E-03
  3.00534845890E-03  3.76277691606E-03  4.71103174974E-03  5.89815505658E-03
  7.38426494997E-03  9.24458020518E-03  1.15731960621E-02  1.44877937940E-02
  1.81355085519E-02  2.27002298790E-02  2.84116675446E-02  3.55565814418E-02
  4.44926458943E-02  5.56654902588E-02  6.96295179311E-02  8.70731339178E-02
  1.08848970258E-01  1.36009526286E-01  1.69848233752E-01  2.11945148734E-01
  2.64215001812E-01  3.28952805837E-01  4.08868037940E-01  5.07091748274E-01
  6.27130706051E-01  7.72727578467E-01  9.47564943003E-01  1.15472328505E+00
  1.39577109909E+00  1.66933637367E+00  1.96900144900E+00  2.28041453209E+00
  2.57768652949E+00  2.81954250504E+00  2.94645279878E+00  2.88119198177E+00
  2.53693136777E+00  1.83861109388E+00  7.63580550131E-01 -5.96862951327E-01
 -1.96887282092E+00 -2.87201543445E+00 -2.76137739390E+00 -1.51628362976E+00
 -1.78478034320E-01  0.00000000000E+00  0.00000000000E+00  0.00000000000E+00
  0.00000000000E+00  0.00000000000E+00  0.00000000000E+00  0.00000000000E+00
  0.00000000000E+00  0.00000000000E+00  0.00000000000E+00  0.00000000000E+00
  0.00000000000E+00  0.00000000000E+00  0.00000000000E+00  0.00000000000E+00
  0.00000000000E+00  0.00000000000E+00  0.00000000000E+00  0.00000000000E+00
  0.00000000000E+00  0.00000000000E+00  0.00000000000E+00  0.00000000000E+00
  0.00000000000E+00  0.00000000000E+00  0.00000000000E+00  0.00000000000E+00
  0.00000000000E+00  0.00000000000E+00  0.00000000000E+00  0.00000000000E+00
  0.00000000000E+00  0.00000000000E+00  0.00000000000E+00  0.00000000000E+00
  0.00000000000E+00  0.00000000000E+00  0.00000000000E+00  0.00000000000E+00
  0.00000000000E+00  0.00000000000E+00  0.00000000000E+00  0.00000000000E+00
  </PP_BETA>
  <PP_DIJ>
    2                  Number of nonzero Dij
    1    1 -7.62361078730E-01
    2    2 -1.60934946307E-01
  </PP_DIJ>
</PP_NONLOCAL>
<PP_PSWFC>
1s    0  1.00          Wavefunction
  1.40866308938E-05  1.51829262744E-05  1.63645411021E-05  1.76381153832E-05
  1.90108058838E-05  2.04903263471E-05  2.20849908403E-05  2.38037604746E-05
  2.56562937620E-05  2.76530008903E-05  2.98051022228E-05  3.21246913500E-05
  3.46248030491E-05  3.73194865319E-05  4.02238843931E-05  4.33543177039E-05
  4.67283777261E-05  5.03650247659E-05  5.42846947197E-05  5.85094139122E-05
  6.30629228719E-05  6.79708097395E-05  7.32606540585E-05  7.89621817566E-05
  8.51074321887E-05  9.17309381797E-05  9.88699200790E-05  1.06564494918E-04
  1.14857901846E-04  1.23796745105E-04  1.33431255927E-04  1.43815574796E-04
  1.55008055691E-04  1.67071594002E-04  1.80073979964E-04  1.94088279599E-04
  2.09193245307E-04  2.25473758404E-04  2.43021306108E-04  2.61934495643E-04
  2.82319608353E-04  3.04291196938E-04  3.27972729172E-04  3.53497281715E-04
  3.81008287923E-04  4.10660343853E-04  4.42620076994E-04  4.77067082604E-04
  5.14194932918E-04  5.54212264893E-04  5.97343952600E-04  6.43832370857E-04
  6.93938757194E-04  7.47944679807E-04  8.06153619748E-04  8.68892676225E-04
  9.36514404619E-04  1.00939879751E-03  1.08795541984E-03  1.17262571028E-03
  1.26388546153E-03  1.36224749375E-03  1.46826453589E-03  1.58253233120E-03
  1.70569298433E-03  1.83843856884E-03  1.98151501521E-03  2.13572630136E-03
  2.30193896894E-03  2.48108699089E-03  2.67417701740E-03  2.88229402960E-03
  3.10660743278E-03  3.34837762296E-03  3.60896306356E-03  3.88982791175E-03
  4.19255023672E-03  4.51883087574E-03  4.87050297720E-03  5.24954228332E-03
  5.65807820960E-03  6.09840578196E-03  6.57299849718E-03  7.08452217716E-03
  7.63584989244E-03  8.23007803601E-03  8.87054363415E-03  9.56084298696E-03
  1.03048517377E-02  1.11067464769E-02  1.19710279929E-02  1.29025462898E-02
  1.39065274977E-02  1.49886028109E-02  1.61548395931E-02  1.74117747984E-02
  1.87664508610E-02  2.02264542125E-02  2.17999565900E-02  2.34957592996E-02
  2.53233406004E-02  2.72929063696E-02  2.94154442025E-02  3.17027810861E-02
  3.41676447645E-02  3.68237288826E-02  3.96857619525E-02  4.27695801245E-02
  4.60922036680E-02  4.96719169598E-02  5.35283516387E-02  5.76825724066E-02
  6.21571647225E-02  6.69763233415E-02  7.21659402668E-02  7.77536902061E-02
  8.37691110090E-02  9.02436757953E-02  9.72108525165E-02  1.04706145479E-01
  1.12767111845E-01  1.21433344242E-01  1.30746408279E-01  1.40749720882E-01
  1.51488351828E-01  1.63008726564E-01  1.75358203153E-01  1.88584490047E-01
  2.02734863993E-01  2.17855139039E-01  2.33988328156E-01  2.51172928982E-01
  2.69440755329E-01  2.88814227801E-01  3.09303032617E-01  3.30900061493E-01
  3.53576563436E-01  3.77276480683E-01  4.01910018886E-01  4.27346633086E-01
  4.53407816966E-01  4.79860384083E-01  5.06411339591E-01  5.32705948661E-01
  5.58331151605E-01  5.82826903045E-01  6.05708032980E-01  6.26498380157E-01
  6.44776625206E-01  6.60228853192E-01  6.72696187426E-01  6.82197721081E-01
  6.88902506090E-01  6.93026641583E-01  6.94656156335E-01  6.93563010892E-01
  6.89190597462E-01  6.80993918474E-01  6.68762120435E-01  6.52442495069E-01
  6.32061125809E-01  6.07730009670E-01  5.79653228853E-01  5.48130590111E-01
  5.13558062156E-01  4.76424357919E-01  4.37303056169E-01  3.96839774040E-01
  3.55734143040E-01  3.14716726901E-01  2.74521489532E-01  2.35855000308E-01
  1.99364351980E-01  1.65606064732E-01  1.35018998594E-01  1.07903938911E-01
  8.44124451011E-02  6.45464949838E-02  4.81693212686E-02  3.50263796665E-02
  2.47740777665E-02  1.70128470454E-02  1.13207564528E-02  7.28396207370E-03
  4.52118715207E-03  2.70049819852E-03  1.54795821739E-03  8.49006397449E-04
  4.44115725547E-04  2.20793881999E-04  1.03925445475E-04  4.61207080478E-05
  1.92110930986E-05  7.47430974573E-06  2.70185172268E-06  9.02293747626E-07
  2.76667736604E-07  7.73768824046E-08  1.95973402991E-08  4.46021758824E-09
2p    1  0.00          Wavefunction
  3.51333383850E-11  4.08146535819E-11  4.74146785813E-11  5.50819754099E-11
  6.39891296501E-11  7.43366352223E-11  8.63574073656E-11  1.00322025400E-10
  1.16544823279E-10  1.35390965035E-10  1.57284664366E-10  1.82718733398E-10
  2.12265675544E-10  2.46590572165E-10  2.86466053094E-10  3.32789688001E-10
  3.86604190070E-10  4.49120886757E-10  5.21746985937E-10  6.06117251185E-10
  7.04130799184E-10  8.17993847532E-10  9.50269375185E-10  1.10393481335E-09
  1.28244906541E-09  1.48983036448E-09  1.73074672103E-09  2.01062099665E-09
  2.33575296885E-09  2.71346113481E-09  3.15224744563E-09  3.66198867947E-09
  4.25415876096E-09  4.94208703138E-09  5.74125828291E-09  6.66966131066E-09
  7.74819382803E-09  9.00113285978E-09  1.04566812011E-08  1.21476022431E-08
  1.41119574539E-08  1.63939631161E-08  1.90449856044E-08  2.21246976073E-08
  2.57024213173E-08  2.98586888257E-08  3.46870548432E-08  4.02962025508E-08
  4.68123899820E-08  5.43822920020E-08  6.31763018545E-08  7.33923665924E-08
  8.52604427241E-08  9.90476723683E-08  1.15064396429E-07  1.33671140140E-07
  1.55286728224E-07  1.80397712320E-07  2.09569322890E-07  2.43458192122E-07
  2.82827134205E-07  3.28562315662E-07  3.81693202231E-07  4.43415731277E-07
  5.15119231295E-07  5.98417694459E-07  6.95186106076E-07  8.07602648692E-07
  9.38197730767E-07  1.08991094346E-06  1.26615722753E-06  1.47090373950E-06
  1.70875914729E-06  1.98507736496E-06  2.30607806131E-06  2.67898665450E-06
  3.11219694343E-06  3.61546003572E-06  4.20010382413E-06  4.87928795029E-06
  5.66829999312E-06  6.58489954647E-06  7.64971792786E-06  8.88672251111E-06
  1.03237561288E-05  1.19931636787E-05  1.39325200272E-05  1.61854755811E-05
  1.88027385410E-05  2.18432159208E-05  2.53753389806E-05  2.94786028616E-05
  3.42453550148E-05  3.97828725927E-05  4.62157754496E-05  5.36888289071E-05
  6.23701991628E-05  7.24552343309E-05  8.41708558398E-05  9.77806585110E-05
  1.13590833417E-04  1.31957045887E-04  1.53292422206E-04  1.78076823039E-04
  2.06867610012E-04  2.40312144631E-04  2.79162296640E-04  3.24291282685E-04
  3.76713206551E-04  4.37605730410E-04  5.08336373318E-04  5.90493009949E-04
  6.85919230473E-04  7.96755322976E-04  9.25485754351E-04  1.07499415560E-03
  1.24862696456E-03  1.45026704440E-03  1.68441878120E-03  1.95630636847E-03
  2.27198721179E-03  2.63848262971E-03  3.06392828640E-03  3.55774706064E-03
  4.13084732584E-03  4.79584987344E-03  5.56734693547E-03  6.46219692330E-03
  7.49985855581E-03  8.70276794596E-03  1.00967618741E-02  1.17115498027E-02
  1.35812360564E-02  1.57448918608E-02  1.82471744371E-02  2.11389869348E-02
  2.44781685482E-02  2.83301987337E-02  3.27688933566E-02  3.78770647156E-02
  4.37471135324E-02  5.04815224405E-02  5.81932327496E-02  6.70059176307E-02
  7.70542267777E-02  8.84841832501E-02  1.01454073002E-01  1.16136378067E-01
  1.32721526790E-01  1.51424360630E-01  1.72494027166E-01  1.96227153782E-01
  2.22982256570E-01  2.53190430978E-01  2.87355116030E-01  3.26037620792E-01
  3.69844974471E-01  4.19464674639E-01  4.75750459248E-01  5.39740785056E-01
  6.12706121154E-01  6.96218815339E-01  7.92251675856E-01  9.03302215289E-01
  8.15403671565E-01  7.30385461148E-01  6.48656400542E-01  5.70663265796E-01
  4.96867323297E-01  4.27722291435E-01  3.63648965205E-01  3.05008710016E-01
  2.52077545292E-01  2.05023171877E-01  1.63887379477E-01  1.28576131710E-01
  9.88590878511E-02  7.43793149394E-02  5.46727789659E-02  3.91958261682E-02
  2.73578348706E-02  1.85554421743E-02  1.22046830488E-02  7.76783859066E-03
  4.77277324664E-03  2.82379561149E-03  1.60430626365E-03  8.72627423610E-04
  4.52938996082E-04  2.23551545013E-04  1.04512319756E-04  4.60884035314E-05
  1.90845134668E-05  7.38423030725E-06  2.65559533897E-06  8.82603365999E-07
  2.69423066399E-07  7.50375481496E-08  1.89312582242E-08  4.29308190387E-09
3d    2  0.00          Wavefunction
  1.72645398426E-16  2.16172304144E-16  2.70673099341E-16  3.38914492293E-16
  4.24360726521E-16  5.31349441551E-16  6.65311871226E-16  8.33048557840E-16
  1.04307457860E-15  1.30605180969E-15  1.63533017157E-15  2.04762533172E-15
  2.56386726788E-15  3.21026276902E-15  4.01962581105E-15  5.03304334361E-15
  6.30196105042E-15  7.89079496629E-15  9.88020152799E-15  1.23711720619E-14
  1.54901595630E-14  1.93954980245E-14  2.42854401907E-14  3.04082217691E-14
  3.80746630033E-14  4.76739473225E-14  5.96933780627E-14  7.47431162004E-14
  9.35871548993E-14  1.17182103278E-13  1.46725748239E-13  1.83717859581E-13
  2.30036325136E-13  2.88032480891E-13  3.60650475503E-13  4.51576728670E-13
  5.65427070561E-13  7.07981062341E-13  8.86475392984E-13  1.10997124650E-12
  1.38981428884E-12  1.74021062548E-12  2.17894796791E-12  2.72829861869E-12
  3.41615011482E-12  4.27742092577E-12  5.35583307367E-12  6.70613166173E-12
  8.39686398435E-12  1.05138592989E-11  1.31645859085E-11  1.64836067407E-11
  2.06394103716E-11  2.58429642703E-11  3.23584244631E-11  4.05165452893E-11
  5.07314699880E-11  6.35217544808E-11  7.95366916122E-11  9.95892721822E-11
  1.24697456021E-10  1.56135848209E-10  1.95500403747E-10  2.44789445386E-10
  3.06505107408E-10  3.83780355114E-10  4.80538028042E-10  6.01689980648E-10
  7.53386429643E-10  9.43328165907E-10  1.18115748012E-09  1.47894764703E-09